59
Iteration: 31   FORCE:    ...   F0:  -468.10761095  ENERGY(s->0):  -468.10761095
Ce    1.9468500000000    1.1418900000000    4.1570000000000    0.006096   -0.004197    0.001886 
Ce    0.0095400000000    4.4655200000000    4.1512500000000    0.003372    0.004322    0.003552 
Ce   -1.9287000000000    7.7718400000000    4.1909700000000    0.000386   -0.006204   -0.007569 
Ce    5.8153700000000    1.1411300000000    4.1641600000000   -0.006822   -0.002806    0.002544 
Ce    3.8818400000000    4.4907000000000    4.1413200000000    0.001032   -0.001520    0.005357 
Ce    1.9428300000000    7.8408400000000    4.1569200000000   -0.001921   -0.000889    0.001425 
Ce    9.6993300000000    1.1169600000000    4.1567000000000   -0.000397   -0.000669    0.004128 
Ce    7.7528100000000    4.4671800000000    4.1544000000000   -0.003973    0.005695    0.004538 
Ce    5.8240700000000    7.8402300000000    4.1537600000000    0.004120   -0.001119    0.001565 
Ce    0.0025700000000    2.2356300000000    1.0520100000000   -0.004016   -0.010773   -0.204552 
Ce   -1.9378300000000    5.5967700000000    1.0513900000000    0.005300    0.005472   -0.190139 
Ce   -3.8646800000000    8.9547000000000    1.0694600000000    0.009173   -0.012883   -0.126417 
Ce    3.8826200000000    2.2416200000000    1.0493700000000    0.006244    0.005490   -0.219049 
Ce    1.9422400000000    5.6003100000000    1.0525300000000   -0.042403    0.018691   -0.207015 
Ce   -0.0078300000000    8.9562400000000    1.0696900000000   -0.000441   -0.014048   -0.127419 
Ce    7.7588000000000    2.2362700000000    1.0539200000000   -0.001548   -0.012187   -0.202336 
Ce    5.8226000000000    5.5998900000000    1.0517800000000    0.036864    0.009395   -0.204952 
Ce    3.8817500000000    8.9645600000000    1.0559400000000   -0.002638    0.015115   -0.195946 
 O   -5.8078300000000   10.0694400000000    4.9275400000000   -0.003543    0.001990    0.003707 
 O    9.7004600000000    3.3440000000000    4.9254800000000    0.000013   -0.002281    0.001696 
 O    7.7256400000000    6.6808500000000    4.9341500000000   -0.001608   -0.000189    0.002066 
 O    3.8753700000000    0.1753700000000    5.0301200000000   -0.001573    0.002822   -0.004341 
 O    1.9402700000000    3.3641300000000    4.9246700000000   -0.002157    0.000732    0.000629 
 O    0.0335800000000    6.6742800000000    4.8867700000000    0.001435   -0.001093    0.001502 
 O    1.9458700000000   10.0751800000000    4.9175000000000    0.003224    0.001837    0.003558 
 O    5.8210300000000    3.3658100000000    4.9285000000000    0.001925   -0.000057    0.000625 
 O    3.8827700000000    6.7259400000000    4.9257600000000   -0.000707   -0.000490    0.001300 
 O    0.0025200000000    2.2363300000000    3.3468500000000   -0.002632    0.001959    0.001798 
 O   -1.9468000000000    5.5956400000000    3.3623900000000    0.000191    0.001443    0.003764 
 O   -3.8191900000000    8.9523400000000    3.3885200000000   -0.003981   -0.002375   -0.001366 
 O    3.8826100000000    2.2644700000000    3.3239300000000   -0.000140   -0.000092    0.001659 
 O    1.9628400000000    5.5923900000000    3.3348800000000    0.000600   -0.002138    0.001735 
 O   -0.0526100000000    8.9632600000000    3.3924800000000    0.003136   -0.002628   -0.001593 
 O    7.7581600000000    2.2406800000000    3.3497300000000    0.002326    0.001406    0.002101 
 O    5.8105400000000    5.5963800000000    3.3375500000000   -0.000801   -0.002251    0.001331 
 O    3.8851200000000    8.9568900000000    3.3473500000000   -0.000712    0.001635    0.003678 
 O    1.9405500000000    1.1111600000000    1.8565800000000    0.006592    0.006382    0.094720 
 O   -0.0009000000000    4.4795600000000    1.8555000000000    0.001821    0.000628    0.096688 
 O   -1.9328900000000    7.8167000000000    1.8388000000000   -0.003072    0.003287    0.116009 
 O    5.8233300000000    1.1128000000000    1.8582900000000   -0.009124    0.008355    0.098507 
 O    3.8853600000000    4.4859900000000    1.8324400000000   -0.002265   -0.000832    0.096228 
 O    1.9231200000000    7.8516400000000    1.8712200000000   -0.001069   -0.003600    0.098535 
 O    9.6987600000000    1.1200400000000    1.8554600000000    0.000251   -0.000760    0.103515 
 O    7.7612100000000    4.4776600000000    1.8523600000000   -0.005199    0.001911    0.097292 
 O    5.8405200000000    7.8503300000000    1.8666900000000    0.000375   -0.004347    0.095373 
 O   -5.8171400000000   10.0770300000000    0.2753000000000   -0.009326    0.010231    0.089967 
 O   -1.9371600000000    3.3558800000000    0.2710100000000    0.004779    0.001724    0.084263 
 O    7.7569100000000    6.7155600000000    0.2712800000000   -0.010062   -0.003193    0.075921 
 O   -1.9368600000000   10.0772500000000    0.2798400000000    0.000732   -0.024877    0.075712 
 O    1.9378900000000    3.3572800000000    0.2732100000000    0.001002   -0.007983    0.089463 
 O    0.0085700000000    6.7148400000000    0.2705900000000    0.019299   -0.006169    0.080336 
 O    1.9416300000000   10.0761500000000    0.2749700000000    0.009174    0.005400    0.090109 
 O    5.8242500000000    3.3561200000000    0.2705500000000    0.000729   -0.009433    0.083778 
 O    3.8805000000000    6.7345200000000    0.2809600000000    0.000851    0.028719    0.096660 
 O   -2.0110000000000    8.3289200000000    6.7316000000000    0.008420   -0.000558   -0.001624 
 H   -2.0635300000000    9.2779500000000    6.3833900000000   -0.002734   -0.000804   -0.006174 
 H   -2.8715200000000    8.1002300000000    7.1262300000000   -0.006209   -0.002123    0.001563 
 C   -1.9276400000000    7.7682600000000   11.6534300000000    0.007898    0.001110   -1.098652 
 O   -1.9276400000000    7.7682600000000   10.5000000000000   -0.016285   -0.000188    1.078363 
59
Iteration: 2   FORCE:    ...   F0:  -468.11051961  ENERGY(s->0):  -468.11051961
Ce    1.9468800000000    1.1418500000000    4.1570100000000    0.000440   -0.000973   -0.000159 
Ce    0.0095600000000    4.4655600000000    4.1512800000000    0.000859    0.001002    0.000895 
Ce   -1.9287000000000    7.7718000000000    4.1909200000000    0.000103   -0.002001   -0.002807 
Ce    5.8153200000000    1.1411000000000    4.1641700000000   -0.001120   -0.000774    0.000154 
Ce    3.8818500000000    4.4906700000000    4.1413600000000    0.000055   -0.000928    0.001924 
Ce    1.9428200000000    7.8408400000000    4.1569400000000   -0.000085   -0.000155    0.000559 
Ce    9.6993300000000    1.1169500000000    4.1567300000000   -0.000187    0.000039    0.001265 
Ce    7.7527900000000    4.4672300000000    4.1544300000000   -0.001121    0.001297    0.001086 
Ce    5.8240900000000    7.8402300000000    4.1537800000000    0.000274   -0.000196    0.000528 
Ce    0.0025700000000    2.2356300000000    1.0520100000000   -0.004298   -0.010874   -0.204423 
Ce   -1.9378300000000    5.5967700000000    1.0513900000000    0.005336    0.004884   -0.190099 
Ce   -3.8646800000000    8.9547000000000    1.0694600000000    0.009250   -0.012834   -0.126816 
Ce    3.8826200000000    2.2416200000000    1.0493700000000    0.006307    0.005670   -0.218522 
Ce    1.9422400000000    5.6003100000000    1.0525300000000   -0.042188    0.018458   -0.206790 
Ce   -0.0078300000000    8.9562400000000    1.0696900000000   -0.000399   -0.013997   -0.127829 
Ce    7.7588000000000    2.2362700000000    1.0539200000000   -0.001226   -0.012290   -0.202161 
Ce    5.8226000000000    5.5998900000000    1.0517800000000    0.036737    0.009148   -0.204799 
Ce    3.8817500000000    8.9645600000000    1.0559400000000   -0.002592    0.015359   -0.195596 
 O   -5.8078600000000   10.0694500000000    4.9275800000000   -0.003662    0.001627    0.004681 
 O    9.7004600000000    3.3439800000000    4.9255000000000   -0.000000   -0.001763    0.002537 
 O    7.7256300000000    6.6808500000000    4.9341700000000   -0.002337   -0.000690    0.002525 
 O    3.8753600000000    0.1754000000000    5.0300700000000   -0.001408    0.004275   -0.005031 
 O    1.9402500000000    3.3641400000000    4.9246800000000   -0.001982    0.001072    0.001375 
 O    0.0335900000000    6.6742800000000    4.8867900000000    0.002099   -0.001337    0.002174 
 O    1.9459100000000   10.0751900000000    4.9175400000000    0.003193    0.001468    0.004666 
 O    5.8210500000000    3.3658200000000    4.9285100000000    0.001789    0.000210    0.001373 
 O    3.8827700000000    6.7259400000000    4.9257700000000   -0.000711   -0.000892    0.001946 
 O    0.0024900000000    2.2363600000000    3.3468600000000   -0.002670    0.002171    0.002120 
 O   -1.9468000000000    5.5956600000000    3.3624300000000    0.000126    0.001399    0.004463 
 O   -3.8192300000000    8.9523200000000    3.3885000000000   -0.004687   -0.002722   -0.001594 
 O    3.8826100000000    2.2644600000000    3.3239600000000   -0.000012   -0.000267    0.002536 
 O    1.9628500000000    5.5923700000000    3.3349000000000    0.000816   -0.002440    0.002291 
 O   -0.0525800000000    8.9632300000000    3.3924600000000    0.003676   -0.002772   -0.001720 
 O    7.7581900000000    2.2407000000000    3.3497500000000    0.002380    0.001605    0.002527 
 O    5.8105300000000    5.5963500000000    3.3375600000000   -0.000875   -0.002642    0.002016 
 O    3.8851200000000    8.9569000000000    3.3473900000000   -0.000726    0.001598    0.004256 
 O    1.9405500000000    1.1111600000000    1.8565800000000    0.007344    0.006611    0.094804 
 O   -0.0009000000000    4.4795600000000    1.8555000000000    0.001848    0.000973    0.097031 
 O   -1.9328900000000    7.8167000000000    1.8388000000000   -0.003103    0.003206    0.116294 
 O    5.8233300000000    1.1128000000000    1.8582900000000   -0.009793    0.008665    0.098680 
 O    3.8853600000000    4.4859900000000    1.8324400000000   -0.002215   -0.001448    0.096881 
 O    1.9231200000000    7.8516400000000    1.8712200000000   -0.000753   -0.004162    0.098788 
 O    9.6987600000000    1.1200400000000    1.8554600000000    0.000296   -0.001090    0.103655 
 O    7.7612100000000    4.4776600000000    1.8523600000000   -0.005157    0.002266    0.097772 
 O    5.8405200000000    7.8503300000000    1.8666900000000    0.000137   -0.004895    0.095649 
 O   -5.8171400000000   10.0770300000000    0.2753000000000   -0.009340    0.010211    0.090156 
 O   -1.9371600000000    3.3558800000000    0.2710100000000    0.004807    0.001765    0.084374 
 O    7.7569100000000    6.7155600000000    0.2712800000000   -0.010188   -0.003500    0.076041 
 O   -1.9368600000000   10.0772500000000    0.2798400000000    0.000745   -0.024655    0.076194 
 O    1.9378900000000    3.3572800000000    0.2732100000000    0.001418   -0.007953    0.089567 
 O    0.0085700000000    6.7148400000000    0.2705900000000    0.019489   -0.006473    0.080458 
 O    1.9416300000000   10.0761500000000    0.2749700000000    0.009259    0.005390    0.090266 
 O    5.8242500000000    3.3561200000000    0.2705500000000    0.000396   -0.009400    0.083880 
 O    3.8805000000000    6.7345200000000    0.2809600000000    0.000902    0.028303    0.096738 
 O   -2.0109200000000    8.3289200000000    6.7315300000000    0.002717   -0.001941   -0.004300 
 H   -2.0635600000000    9.2779200000000    6.3833300000000   -0.002769   -0.001810   -0.005763 
 H   -2.8715600000000    8.1002000000000    7.1262700000000    0.002703   -0.000879    0.001591 
 C   -1.9276400000000    7.7682600000000   11.5034300000000    0.009147    0.001380   -1.098338 
 O   -1.9276400000000    7.7682600000000   10.3500000000000   -0.019045   -0.001301    1.080030 
59
Iteration: 12   FORCE:    ...   F0:  -468.11312939  ENERGY(s->0):  -468.11312939
Ce    1.9465700000000    1.1415300000000    4.1570000000000    0.003023   -0.000146    0.000836 
Ce    0.0100100000000    4.4657600000000    4.1519200000000   -0.000581    0.000895   -0.001729 
Ce   -1.9286500000000    7.7706100000000    4.1899100000000   -0.001245    0.004821    0.005161 
Ce    5.8152200000000    1.1408500000000    4.1642400000000   -0.001759    0.000242    0.000425 
Ce    3.8818200000000    4.4902300000000    4.1423000000000    0.000225    0.001270   -0.005839 
Ce    1.9431200000000    7.8408900000000    4.1573400000000   -0.002700   -0.001388   -0.001309 
Ce    9.6991400000000    1.1173600000000    4.1576500000000    0.000547   -0.001958   -0.002145 
Ce    7.7522600000000    4.4675400000000    4.1551500000000    0.000384    0.000491   -0.001881 
Ce    5.8238900000000    7.8402700000000    4.1542400000000    0.002603   -0.001370   -0.001465 
Ce    0.0025700000000    2.2356300000000    1.0520100000000   -0.006806   -0.010030   -0.200533 
Ce   -1.9378300000000    5.5967700000000    1.0513900000000    0.005231    0.000699   -0.188852 
Ce   -3.8646800000000    8.9547000000000    1.0694600000000    0.004427   -0.013095   -0.126912 
Ce    3.8826200000000    2.2416200000000    1.0493700000000    0.006348    0.009327   -0.214525 
Ce    1.9422400000000    5.6003100000000    1.0525300000000   -0.040136    0.016932   -0.201874 
Ce   -0.0078300000000    8.9562400000000    1.0696900000000    0.004147   -0.013991   -0.127949 
Ce    7.7588000000000    2.2362700000000    1.0539200000000    0.001055   -0.011531   -0.197578 
Ce    5.8226000000000    5.5998900000000    1.0517800000000    0.034729    0.007666   -0.199962 
Ce    3.8817500000000    8.9645600000000    1.0559400000000   -0.002648    0.016463   -0.190160 
 O   -5.8083500000000   10.0697100000000    4.9288300000000    0.000771    0.001048    0.000439 
 O    9.7004300000000    3.3439000000000    4.9263400000000   -0.000254    0.000747    0.002206 
 O    7.7250000000000    6.6807300000000    4.9348300000000   -0.001555   -0.002535   -0.000532 
 O    3.8750300000000    0.1764500000000    5.0287500000000   -0.001054   -0.001510    0.001196 
 O    1.9399500000000    3.3642500000000    4.9252400000000   -0.000246   -0.001045    0.001901 
 O    0.0340700000000    6.6741200000000    4.8874800000000    0.001011   -0.001944   -0.000052 
 O    1.9462500000000   10.0754200000000    4.9188300000000   -0.001226    0.001104    0.000585 
 O    5.8213100000000    3.3657500000000    4.9291000000000   -0.000357   -0.000866    0.002194 
 O    3.8826400000000    6.7256600000000    4.9263700000000    0.000148   -0.000238    0.001694 
 O    0.0021500000000    2.2367900000000    3.3472300000000    0.001441   -0.001465    0.000417 
 O   -1.9467900000000    5.5961600000000    3.3634000000000   -0.000310   -0.002544   -0.002819 
 O   -3.8202100000000    8.9516100000000    3.3883600000000    0.000057    0.000636    0.000599 
 O    3.8826100000000    2.2644800000000    3.3244500000000   -0.000373    0.002857   -0.002705 
 O    1.9630800000000    5.5919100000000    3.3353500000000   -0.000081    0.000512   -0.000182 
 O   -0.0518600000000    8.9625500000000    3.3922900000000   -0.000288    0.001004    0.000898 
 O    7.7584300000000    2.2410500000000    3.3502100000000   -0.001888   -0.001220    0.000122 
 O    5.8103100000000    5.5958500000000    3.3380400000000   -0.000427    0.000661    0.000118 
 O    3.8849800000000    8.9570700000000    3.3481800000000    0.000251   -0.000537   -0.000784 
 O    1.9405500000000    1.1111600000000    1.8565800000000    0.006960    0.006246    0.096600 
 O   -0.0009000000000    4.4795600000000    1.8555000000000    0.000466    0.003218    0.098731 
 O   -1.9328900000000    7.8167000000000    1.8388000000000   -0.003425    0.002208    0.114874 
 O    5.8233300000000    1.1128000000000    1.8582900000000   -0.009807    0.008345    0.100658 
 O    3.8853600000000    4.4859900000000    1.8324400000000   -0.002238   -0.002644    0.098573 
 O    1.9231200000000    7.8516400000000    1.8712200000000    0.001724   -0.005735    0.099343 
 O    9.6987600000000    1.1200400000000    1.8554600000000    0.000049   -0.001654    0.104716 
 O    7.7612100000000    4.4776600000000    1.8523600000000   -0.003723    0.004439    0.099883 
 O    5.8405200000000    7.8503300000000    1.8666900000000   -0.002877   -0.006563    0.096676 
 O   -5.8171400000000   10.0770300000000    0.2753000000000   -0.009074    0.010060    0.089924 
 O   -1.9371600000000    3.3558800000000    0.2710100000000    0.004758    0.003045    0.083799 
 O    7.7569100000000    6.7155600000000    0.2712800000000   -0.008734   -0.003593    0.075919 
 O   -1.9368600000000   10.0772500000000    0.2798400000000    0.000705   -0.024864    0.076313 
 O    1.9378900000000    3.3572800000000    0.2732100000000    0.001431   -0.008452    0.089492 
 O    0.0085700000000    6.7148400000000    0.2705900000000    0.018012   -0.006572    0.080327 
 O    1.9416300000000   10.0761500000000    0.2749700000000    0.009007    0.005289    0.089985 
 O    5.8242500000000    3.3561200000000    0.2705500000000    0.000426   -0.009903    0.083718 
 O    3.8805000000000    6.7345200000000    0.2809600000000    0.000895    0.028727    0.096465 
 O   -2.0108100000000    8.3283200000000    6.7282900000000   -0.003376    0.004563   -0.004964 
 H   -2.0645800000000    9.2776300000000    6.3811000000000   -0.000118   -0.002743   -0.005775 
 H   -2.8695100000000    8.0997900000000    7.1274500000000    0.008162   -0.002127    0.000794 
 C   -1.9276400000000    7.7682600000000   11.3534300000000    0.010595    0.001824   -1.097993 
 O   -1.9276400000000    7.7682600000000   10.2000000000000   -0.022282   -0.003077    1.082937 
59
Iteration: 31   FORCE:    ...   F0:  -468.11494099  ENERGY(s->0):  -468.11494099
Ce    1.9460200000000    1.1422500000000    4.1568900000000    0.003866   -0.004068    0.002467 
Ce    0.0100700000000    4.4654200000000    4.1518800000000   -0.000130    0.000116    0.001360 
Ce   -1.9289500000000    7.7688500000000    4.1884500000000   -0.000500    0.006256    0.001332 
Ce    5.8153400000000    1.1414300000000    4.1642000000000   -0.003048   -0.003212    0.002476 
Ce    3.8816700000000    4.4902600000000    4.1415400000000    0.000453   -0.000363    0.003695 
Ce    1.9430900000000    7.8406800000000    4.1572900000000   -0.002417    0.000809    0.001646 
Ce    9.6990900000000    1.1172300000000    4.1576600000000    0.000021   -0.000566    0.001761 
Ce    7.7519300000000    4.4670100000000    4.1550200000000    0.000158    0.001267    0.001871 
Ce    5.8235100000000    7.8399600000000    4.1541100000000    0.003648    0.000625    0.001560 
Ce    0.0025700000000    2.2356300000000    1.0520100000000   -0.006518   -0.009767   -0.203544 
Ce   -1.9378300000000    5.5967700000000    1.0513900000000    0.005361   -0.003559   -0.194991 
Ce   -3.8646800000000    8.9547000000000    1.0694600000000    0.002468   -0.011430   -0.125381 
Ce    3.8826200000000    2.2416200000000    1.0493700000000    0.006173    0.009624   -0.218141 
Ce    1.9422400000000    5.6003100000000    1.0525300000000   -0.040049    0.016043   -0.203730 
Ce   -0.0078300000000    8.9562400000000    1.0696900000000    0.005456   -0.012087   -0.126877 
Ce    7.7588000000000    2.2362700000000    1.0539200000000    0.000223   -0.011548   -0.200392 
Ce    5.8226000000000    5.5998900000000    1.0517800000000    0.033768    0.006658   -0.202007 
Ce    3.8817500000000    8.9645600000000    1.0559400000000   -0.002817    0.016154   -0.191816 
 O   -5.8084700000000   10.0698400000000    4.9288700000000   -0.002858    0.001198   -0.001846 
 O    9.7003000000000    3.3437300000000    4.9269100000000    0.000016   -0.001170   -0.001079 
 O    7.7238700000000    6.6784700000000    4.9334500000000    0.002717   -0.000164   -0.000409 
 O    3.8740300000000    0.1802700000000    5.0293600000000   -0.001872   -0.000408   -0.000022 
 O    1.9394900000000    3.3640400000000    4.9257000000000   -0.000417    0.000270   -0.000908 
 O    0.0346800000000    6.6727700000000    4.8869100000000   -0.001470   -0.001070   -0.001486 
 O    1.9459300000000   10.0754900000000    4.9190000000000    0.001394    0.000937   -0.001839 
 O    5.8212400000000    3.3653600000000    4.9295900000000    0.000269   -0.000884   -0.000941 
 O    3.8825100000000    6.7259500000000    4.9269400000000   -0.000386    0.000181   -0.000946 
 O    0.0020900000000    2.2368200000000    3.3470300000000   -0.001645   -0.001499    0.000508 
 O   -1.9467400000000    5.5955200000000    3.3626800000000   -0.000043   -0.001156   -0.000020 
 O   -3.8201600000000    8.9512300000000    3.3885800000000    0.001624   -0.000594    0.000134 
 O    3.8825200000000    2.2654500000000    3.3235400000000    0.000172    0.001573   -0.000531 
 O    1.9634900000000    5.5917600000000    3.3352400000000   -0.000434    0.000616   -0.002197 
 O   -0.0523000000000    8.9624100000000    3.3925700000000   -0.002515    0.000152    0.001612 
 O    7.7582000000000    2.2409700000000    3.3500700000000    0.000704   -0.001881    0.000186 
 O    5.8093500000000    5.5955200000000    3.3377800000000    0.000504    0.000670   -0.001854 
 O    3.8848900000000    8.9567800000000    3.3480100000000   -0.000203    0.001261    0.000280 
 O    1.9405500000000    1.1111600000000    1.8565800000000    0.005733    0.004988    0.095028 
 O   -0.0009000000000    4.4795600000000    1.8555000000000    0.001886    0.002994    0.097335 
 O   -1.9328900000000    7.8167000000000    1.8388000000000   -0.003756   -0.000183    0.109346 
 O    5.8233300000000    1.1128000000000    1.8582900000000   -0.009495    0.007185    0.099978 
 O    3.8853600000000    4.4859900000000    1.8324400000000   -0.003567   -0.000562    0.092328 
 O    1.9231200000000    7.8516400000000    1.8712200000000    0.000090   -0.005872    0.099453 
 O    9.6987600000000    1.1200400000000    1.8554600000000   -0.000394   -0.002121    0.105799 
 O    7.7612100000000    4.4776600000000    1.8523600000000   -0.005521    0.004075    0.098618 
 O    5.8405200000000    7.8503300000000    1.8666900000000   -0.002702   -0.007089    0.096318 
 O   -5.8171400000000   10.0770300000000    0.2753000000000   -0.009084    0.009630    0.089942 
 O   -1.9371600000000    3.3558800000000    0.2710100000000    0.004592    0.002856    0.083898 
 O    7.7569100000000    6.7155600000000    0.2712800000000   -0.008392   -0.003114    0.076339 
 O   -1.9368600000000   10.0772500000000    0.2798400000000    0.000746   -0.026793    0.076613 
 O    1.9378900000000    3.3572800000000    0.2732100000000    0.000623   -0.008020    0.089496 
 O    0.0085700000000    6.7148400000000    0.2705900000000    0.017685   -0.006006    0.080721 
 O    1.9416300000000   10.0761500000000    0.2749700000000    0.008738    0.004898    0.090005 
 O    5.8242500000000    3.3561200000000    0.2705500000000    0.001182   -0.009688    0.083800 
 O    3.8805000000000    6.7345200000000    0.2809600000000    0.000660    0.028857    0.096557 
 O   -2.0075600000000    8.3300200000000    6.7164400000000    0.008155   -0.001756    0.003223 
 H   -2.0676900000000    9.2794800000000    6.3681300000000    0.003092    0.008417    0.000693 
 H   -2.8570000000000    8.0979500000000    7.1322900000000    0.001830    0.001954    0.001317 
 C   -1.9276400000000    7.7682600000000   11.2034300000000    0.012394    0.002417   -1.095700 
 O   -1.9276400000000    7.7682600000000   10.0500000000000   -0.026167   -0.006050    1.088963 
59
Iteration: 14   FORCE:    ...   F0:  -468.11481397  ENERGY(s->0):  -468.11481397
Ce    1.9461900000000    1.1420400000000    4.1569300000000    0.001724    0.000838    0.002100 
Ce    0.0100700000000    4.4652000000000    4.1518300000000    0.000805    0.001756    0.002195 
Ce   -1.9291200000000    7.7687100000000    4.1883900000000   -0.001260   -0.000057    0.000502 
Ce    5.8150000000000    1.1412800000000    4.1642300000000   -0.002131    0.001260    0.002598 
Ce    3.8816300000000    4.4904000000000    4.1417900000000    0.000573   -0.001794    0.000304 
Ce    1.9428500000000    7.8407400000000    4.1573200000000   -0.001000   -0.000189    0.001587 
Ce    9.6990100000000    1.1171700000000    4.1576800000000    0.000049   -0.001355    0.001672 
Ce    7.7519400000000    4.4668200000000    4.1550300000000   -0.001033    0.001895    0.002479 
Ce    5.8237800000000    7.8399700000000    4.1541800000000    0.001285   -0.000041    0.001683 
Ce    0.0025700000000    2.2356300000000    1.0520100000000   -0.006934   -0.010044   -0.201563 
Ce   -1.9378300000000    5.5967700000000    1.0513900000000    0.005294   -0.003464   -0.192823 
Ce   -3.8646800000000    8.9547000000000    1.0694600000000    0.003258   -0.011548   -0.124386 
Ce    3.8826200000000    2.2416200000000    1.0493700000000    0.006273    0.011046   -0.215563 
Ce    1.9422400000000    5.6003100000000    1.0525300000000   -0.039108    0.015903   -0.203552 
Ce   -0.0078300000000    8.9562400000000    1.0696900000000    0.004303   -0.011907   -0.124659 
Ce    7.7588000000000    2.2362700000000    1.0539200000000    0.000634   -0.011730   -0.198386 
Ce    5.8226000000000    5.5998900000000    1.0517800000000    0.033222    0.006681   -0.201260 
Ce    3.8817500000000    8.9645600000000    1.0559400000000   -0.002552    0.016576   -0.189364 
 O   -5.8087900000000   10.0698700000000    4.9287600000000    0.000530   -0.000993    0.000276 
 O    9.7002500000000    3.3436600000000    4.9269600000000   -0.000082   -0.000267   -0.000191 
 O    7.7244000000000    6.6784900000000    4.9336600000000   -0.002962   -0.002598   -0.001648 
 O    3.8736600000000    0.1809100000000    5.0289600000000    0.001014    0.007286    0.000691 
 O    1.9396800000000    3.3641400000000    4.9258500000000   -0.001353    0.001164   -0.000807 
 O    0.0344900000000    6.6725400000000    4.8869200000000    0.002733   -0.001826   -0.000882 
 O    1.9459500000000   10.0755100000000    4.9189300000000   -0.000252   -0.001315    0.000411 
 O    5.8211100000000    3.3652200000000    4.9297900000000    0.000939    0.001470   -0.000665 
 O    3.8825000000000    6.7259200000000    4.9270100000000   -0.000327    0.000142   -0.000301 
 O    0.0019600000000    2.2365000000000    3.3473000000000    0.000069    0.001998   -0.002630 
 O   -1.9467700000000    5.5953000000000    3.3629300000000    0.000143   -0.002248   -0.003851 
 O   -3.8197500000000    8.9512500000000    3.3889900000000   -0.003290    0.000005   -0.003967 
 O    3.8825500000000    2.2657100000000    3.3238800000000   -0.000426    0.000412   -0.005220 
 O    1.9634600000000    5.5919500000000    3.3350100000000   -0.000219   -0.000610    0.000182 
 O   -0.0529700000000    8.9626300000000    3.3932500000000    0.003240   -0.000774   -0.004508 
 O    7.7581700000000    2.2406100000000    3.3502800000000    0.000415    0.001900   -0.002535 
 O    5.8095400000000    5.5957500000000    3.3377500000000   -0.000072   -0.000805   -0.000348 
 O    3.8848700000000    8.9569300000000    3.3482700000000   -0.000356   -0.001184   -0.002663 
 O    1.9405500000000    1.1111600000000    1.8565800000000    0.006521    0.004459    0.095085 
 O   -0.0009000000000    4.4795600000000    1.8555000000000    0.001632    0.001850    0.097192 
 O   -1.9328900000000    7.8167000000000    1.8388000000000   -0.003608   -0.000278    0.105065 
 O    5.8233300000000    1.1128000000000    1.8582900000000   -0.010398    0.006250    0.099482 
 O    3.8853600000000    4.4859900000000    1.8324400000000   -0.002975   -0.000332    0.092722 
 O    1.9231200000000    7.8516400000000    1.8712200000000   -0.001738   -0.003423    0.100302 
 O    9.6987600000000    1.1200400000000    1.8554600000000   -0.000447   -0.001914    0.104142 
 O    7.7612100000000    4.4776600000000    1.8523600000000   -0.005277    0.003030    0.098589 
 O    5.8405200000000    7.8503300000000    1.8666900000000   -0.001622   -0.005407    0.096887 
 O   -5.8171400000000   10.0770300000000    0.2753000000000   -0.008642    0.009586    0.089808 
 O   -1.9371600000000    3.3558800000000    0.2710100000000    0.004746    0.002986    0.083786 
 O    7.7569100000000    6.7155600000000    0.2712800000000   -0.008265   -0.002479    0.076163 
 O   -1.9368600000000   10.0772500000000    0.2798400000000    0.000953   -0.027011    0.076560 
 O    1.9378900000000    3.3572800000000    0.2732100000000    0.000643   -0.008429    0.089275 
 O    0.0085700000000    6.7148400000000    0.2705900000000    0.017555   -0.005098    0.080557 
 O    1.9416300000000   10.0761500000000    0.2749700000000    0.008297    0.004674    0.089862 
 O    5.8242500000000    3.3561200000000    0.2705500000000    0.001250   -0.009867    0.083502 
 O    3.8805000000000    6.7345200000000    0.2809600000000    0.000873    0.029527    0.096370 
 O   -2.0068900000000    8.3304600000000    6.7111900000000    0.001691    0.002484    0.007633 
 H   -2.0666500000000    9.2816700000000    6.3674400000000    0.002321    0.000802   -0.009116 
 H   -2.8535600000000    8.0989100000000    7.1329500000000    0.008987    0.000888    0.001187 
 C   -1.9276400000000    7.7682600000000   11.0534300000000    0.014611    0.003427   -1.093449 
 O   -1.9276400000000    7.7682600000000    9.9000000000000   -0.030256   -0.011310    1.103485 
59
Iteration: 29   FORCE:    ...   F0:  -468.11168887  ENERGY(s->0):  -468.11168887
Ce    1.9460100000000    1.1434900000000    4.1566400000000    0.000986   -0.003210    0.004835 
Ce    0.0103300000000    4.4649700000000    4.1518100000000    0.000207    0.000901    0.005024 
Ce   -1.9293700000000    7.7662400000000    4.1859400000000    0.001196    0.003169   -0.001557 
Ce    5.8149900000000    1.1425300000000    4.1640000000000   -0.001800   -0.004684    0.005383 
Ce    3.8816500000000    4.4906600000000    4.1412200000000    0.000527    0.001375    0.005417 
Ce    1.9428500000000    7.8407700000000    4.1571400000000   -0.003672    0.000237    0.005309 
Ce    9.6989800000000    1.1169200000000    4.1577200000000    0.000380    0.000758    0.005186 
Ce    7.7515700000000    4.4665000000000    4.1549900000000   -0.000274    0.000825    0.004706 
Ce    5.8236100000000    7.8400000000000    4.1540900000000    0.001962   -0.000089    0.003962 