59
Iteration: 102   FORCE:    ...   F0:  -468.10100866  ENERGY(s->0):  -468.10100866
Ce    1.9466300000000    1.1410300000000    4.1569300000000   -0.002433    0.001548   -0.000045 
Ce    0.0097400000000    4.4657800000000    4.1520900000000    0.001050   -0.000469    0.000153 
Ce   -1.9261600000000    7.7731500000000    4.1875800000000    0.000824   -0.001287    0.000907 
Ce    5.8152400000000    1.1405700000000    4.1648900000000    0.002009    0.000319    0.000552 
Ce    3.8816400000000    4.4903000000000    4.1421300000000    0.000109    0.001047   -0.000548 
Ce    1.9436300000000    7.8410600000000    4.1575200000000   -0.000169    0.000080   -0.000100 
Ce    9.6991600000000    1.1176100000000    4.1577600000000    0.000354   -0.000271    0.001374 
Ce    7.7518200000000    4.4679500000000    4.1555500000000    0.000621    0.000591    0.000066 
Ce    5.8238000000000    7.8399500000000    4.1538400000000    0.000426    0.000815   -0.000578 
Ce    0.0025700000000    2.2356300000000    1.0520100000000   -0.008247   -0.010636   -0.199896 
Ce   -1.9378300000000    5.5967700000000    1.0513900000000    0.002803   -0.004196   -0.188121 
Ce   -3.8646800000000    8.9547000000000    1.0694600000000   -0.000128   -0.011817   -0.130746 
Ce    3.8826200000000    2.2416200000000    1.0493700000000    0.008399    0.006798   -0.212304 
Ce    1.9422400000000    5.6003100000000    1.0525300000000   -0.041467    0.019066   -0.201877 
Ce   -0.0078300000000    8.9562400000000    1.0696900000000    0.011222   -0.009271   -0.136948 
Ce    7.7588000000000    2.2362700000000    1.0539200000000   -0.000075   -0.011543   -0.194302 
Ce    5.8226000000000    5.5998900000000    1.0517800000000    0.036278    0.007166   -0.202719 
Ce    3.8817500000000    8.9645600000000    1.0559400000000   -0.003826    0.017361   -0.189954 
 O   -5.8071000000000   10.0698900000000    4.9288600000000    0.000366   -0.000438    0.000140 
 O    9.7007000000000    3.3446900000000    4.9257000000000    0.000075   -0.001050    0.000466 
 O    7.7212200000000    6.6815200000000    4.9381000000000   -0.001347   -0.000499    0.001182 
 O    3.8751600000000    0.1696000000000    5.0264400000000   -0.000631    0.000466    0.001135 
 O    1.9396200000000    3.3642600000000    4.9247800000000    0.000084   -0.000331   -0.000464 
 O    0.0334400000000    6.6765900000000    4.8880100000000   -0.000153   -0.000455    0.000503 
 O    1.9460400000000   10.0760000000000    4.9185200000000   -0.000081   -0.000342   -0.000230 
 O    5.8211000000000    3.3656600000000    4.9291400000000   -0.001176    0.000091   -0.000608 
 O    3.8822700000000    6.7255000000000    4.9259300000000   -0.000099   -0.001471   -0.000554 
 O    0.0021900000000    2.2366200000000    3.3472500000000    0.000154   -0.000050    0.000124 
 O   -1.9475700000000    5.5967100000000    3.3635000000000    0.000420   -0.000249   -0.000848 
 O   -3.8206500000000    8.9510200000000    3.3875000000000    0.000453    0.000515   -0.000731 
 O    3.8826000000000    2.2640400000000    3.3251100000000   -0.000440   -0.000129   -0.000453 
 O    1.9622800000000    5.5922000000000    3.3354400000000    0.000803   -0.000901    0.000788 
 O   -0.0504300000000    8.9630400000000    3.3910000000000   -0.000616    0.000041   -0.000078 
 O    7.7582100000000    2.2411700000000    3.3504000000000   -0.000164   -0.000656    0.000409 
 O    5.8104400000000    5.5957000000000    3.3376500000000   -0.001608   -0.000716    0.000250 
 O    3.8850300000000    8.9575800000000    3.3484100000000   -0.000398   -0.000649   -0.001555 
 O    1.9405500000000    1.1111600000000    1.8565800000000    0.008130    0.006486    0.096924 
 O   -0.0009000000000    4.4795600000000    1.8555000000000   -0.002066    0.003315    0.101385 
 O   -1.9328900000000    7.8167000000000    1.8388000000000    0.001132    0.005787    0.109276 
 O    5.8233300000000    1.1128000000000    1.8582900000000   -0.011838    0.010519    0.101708 
 O    3.8853600000000    4.4859900000000    1.8324400000000   -0.004738   -0.003878    0.100011 
 O    1.9231200000000    7.8516400000000    1.8712200000000    0.005488   -0.007377    0.097775 
 O    9.6987600000000    1.1200400000000    1.8554600000000   -0.000320   -0.000447    0.105989 
 O    7.7612100000000    4.4776600000000    1.8523600000000   -0.003408    0.004292    0.100062 
 O    5.8405200000000    7.8503300000000    1.8666900000000   -0.005822   -0.007679    0.091882 
 O   -5.8171400000000   10.0770300000000    0.2753000000000   -0.009400    0.010366    0.089753 
 O   -1.9371600000000    3.3558800000000    0.2710100000000    0.005188    0.003277    0.083763 
 O    7.7569100000000    6.7155600000000    0.2712800000000   -0.007707   -0.003351    0.076001 
 O   -1.9368600000000   10.0772500000000    0.2798400000000    0.000085   -0.024245    0.076927 
 O    1.9378900000000    3.3572800000000    0.2732100000000    0.002017   -0.008700    0.089318 
 O    0.0085700000000    6.7148400000000    0.2705900000000    0.017266   -0.007271    0.080657 
 O    1.9416300000000   10.0761500000000    0.2749700000000    0.009634    0.005316    0.089585 
 O    5.8242500000000    3.3561200000000    0.2705500000000   -0.000992   -0.010262    0.083285 
 O    3.8805000000000    6.7345200000000    0.2809600000000    0.000458    0.028373    0.096418 
 O   -2.0677600000000    8.3123700000000    6.7280400000000    0.003427    0.004521   -0.002571 
 H   -2.1020900000000    9.2630200000000    6.3850000000000    0.000131   -0.004105    0.001203 
 H   -2.9604500000000    8.0704500000000    7.0353200000000   -0.007363   -0.004126    0.000187 
 C   -0.5230100000000    8.6640000000000   11.6534300000000   -0.000863   -0.001944   -1.116050 
 O   -0.5230100000000    8.6640000000000   10.5000000000000   -0.001832    0.002656    1.102123 
59
Iteration: 1   FORCE:    ...   F0:  -468.10319444  ENERGY(s->0):  -468.10319444
Ce    1.9466300000000    1.1410300000000    4.1569300000000   -0.000163   -0.000628   -0.000262 
Ce    0.0097400000000    4.4657800000000    4.1520900000000   -0.001092    0.000713    0.000655 
Ce   -1.9261600000000    7.7731500000000    4.1875800000000    0.000786    0.001216    0.002085 
Ce    5.8152400000000    1.1405700000000    4.1648900000000   -0.000609   -0.001224    0.000540 
Ce    3.8816400000000    4.4903000000000    4.1421300000000   -0.001062   -0.001065    0.001047 
Ce    1.9436300000000    7.8410600000000    4.1575200000000   -0.000513   -0.000375    0.001358 
Ce    9.6991600000000    1.1176100000000    4.1577600000000   -0.000245    0.000766   -0.000892 
Ce    7.7518200000000    4.4679500000000    4.1555500000000   -0.000973   -0.000120    0.000618 
Ce    5.8238000000000    7.8399500000000    4.1538400000000   -0.001574   -0.001804    0.000646 
Ce    0.0025700000000    2.2356300000000    1.0520100000000   -0.008050   -0.010609   -0.200412 
Ce   -1.9378300000000    5.5967700000000    1.0513900000000    0.002860   -0.003828   -0.188327 
Ce   -3.8646800000000    8.9547000000000    1.0694600000000    0.000064   -0.012029   -0.131067 
Ce    3.8826200000000    2.2416200000000    1.0493700000000    0.008629    0.007001   -0.212762 
Ce    1.9422400000000    5.6003100000000    1.0525300000000   -0.041395    0.019241   -0.202176 
Ce   -0.0078300000000    8.9562400000000    1.0696900000000    0.011383   -0.009349   -0.137395 
Ce    7.7588000000000    2.2362700000000    1.0539200000000   -0.000106   -0.011521   -0.194778 
Ce    5.8226000000000    5.5998900000000    1.0517800000000    0.036547    0.007275   -0.203018 
Ce    3.8817500000000    8.9645600000000    1.0559400000000   -0.003742    0.017383   -0.190370 
 O   -5.8071000000000   10.0698900000000    4.9288600000000    0.000023   -0.000550    0.000725 
 O    9.7007000000000    3.3446900000000    4.9257000000000    0.000058   -0.001155    0.000918 
 O    7.7212200000000    6.6815200000000    4.9381000000000   -0.000727    0.000001    0.001125 
 O    3.8751600000000    0.1696000000000    5.0264400000000   -0.000125    0.000138    0.001599 
 O    1.9396200000000    3.3642600000000    4.9247800000000    0.000097   -0.000060   -0.000049 
 O    0.0334400000000    6.6765900000000    4.8880100000000   -0.000068    0.000340    0.000457 
 O    1.9460400000000   10.0760000000000    4.9185200000000   -0.000016   -0.000526    0.000397 
 O    5.8211000000000    3.3656600000000    4.9291400000000   -0.000857   -0.000111   -0.000259 
 O    3.8822700000000    6.7255000000000    4.9259300000000   -0.000287   -0.000952   -0.000554 
 O    0.0021900000000    2.2366200000000    3.3472500000000    0.000067    0.000040    0.000116 
 O   -1.9475700000000    5.5967100000000    3.3635000000000    0.000333    0.000535   -0.000800 
 O   -3.8206500000000    8.9510200000000    3.3875000000000    0.000595   -0.000206   -0.000651 
 O    3.8826000000000    2.2640400000000    3.3251100000000   -0.000050    0.000151   -0.000416 
 O    1.9622800000000    5.5922000000000    3.3354400000000    0.000948   -0.000458    0.000732 
 O   -0.0504300000000    8.9630400000000    3.3910000000000   -0.000510   -0.000414    0.000549 
 O    7.7582100000000    2.2411700000000    3.3504000000000   -0.000082   -0.000569    0.000528 
 O    5.8104400000000    5.5957000000000    3.3376500000000   -0.001272   -0.000423    0.000157 
 O    3.8850300000000    8.9575800000000    3.3484100000000   -0.000380   -0.000838   -0.001227 
 O    1.9405500000000    1.1111600000000    1.8565800000000    0.008103    0.006648    0.096440 
 O   -0.0009000000000    4.4795600000000    1.8555000000000   -0.001911    0.003464    0.101170 
 O   -1.9328900000000    7.8167000000000    1.8388000000000    0.001166    0.005630    0.109706 
 O    5.8233300000000    1.1128000000000    1.8582900000000   -0.011580    0.010713    0.101484 
 O    3.8853600000000    4.4859900000000    1.8324400000000   -0.004567   -0.003802    0.099991 
 O    1.9231200000000    7.8516400000000    1.8712200000000    0.005639   -0.007410    0.098077 
 O    9.6987600000000    1.1200400000000    1.8554600000000   -0.000138   -0.000379    0.105881 
 O    7.7612100000000    4.4776600000000    1.8523600000000   -0.003328    0.004544    0.100017 
 O    5.8405200000000    7.8503300000000    1.8666900000000   -0.005647   -0.007748    0.092122 
 O   -5.8171400000000   10.0770300000000    0.2753000000000   -0.009264    0.010459    0.089569 
 O   -1.9371600000000    3.3558800000000    0.2710100000000    0.005344    0.003430    0.083492 
 O    7.7569100000000    6.7155600000000    0.2712800000000   -0.007482   -0.003303    0.075979 
 O   -1.9368600000000   10.0772500000000    0.2798400000000    0.000199   -0.024259    0.076574 
 O    1.9378900000000    3.3572800000000    0.2732100000000    0.002089   -0.008565    0.089119 
 O    0.0085700000000    6.7148400000000    0.2705900000000    0.017353   -0.007265    0.080557 
 O    1.9416300000000   10.0761500000000    0.2749700000000    0.009781    0.005397    0.089392 
 O    5.8242500000000    3.3561200000000    0.2705500000000   -0.000827   -0.010149    0.083086 
 O    3.8805000000000    6.7345200000000    0.2809600000000    0.000559    0.028396    0.096256 
 O   -2.0677600000000    8.3123700000000    6.7280400000000    0.005037    0.005415   -0.003831 
 H   -2.1020900000000    9.2630200000000    6.3850000000000    0.000673   -0.004328    0.001777 
 H   -2.9604500000000    8.0704500000000    7.0353200000000   -0.007284   -0.003985    0.000264 
 C   -0.5230100000000    8.6640000000000   11.5034300000000   -0.001217   -0.002202   -1.117790 
 O   -0.5230100000000    8.6640000000000   10.3500000000000   -0.001189    0.003311    1.101830 
59
Iteration: 1   FORCE:    ...   F0:  -468.10551763  ENERGY(s->0):  -468.10551763
Ce    1.9466300000000    1.1410300000000    4.1569300000000    0.000048   -0.000798   -0.000254 
Ce    0.0097400000000    4.4657800000000    4.1520900000000   -0.001120    0.000882    0.000581 
Ce   -1.9261600000000    7.7731500000000    4.1875800000000    0.000860    0.001494    0.003046 
Ce    5.8152400000000    1.1405700000000    4.1648900000000   -0.000774   -0.001535    0.000802 
Ce    3.8816400000000    4.4903000000000    4.1421300000000   -0.001060   -0.001091    0.000933 
Ce    1.9436300000000    7.8410600000000    4.1575200000000   -0.000811   -0.000297    0.001583 
Ce    9.6991600000000    1.1176100000000    4.1577600000000   -0.000291    0.000724   -0.000972 
Ce    7.7518200000000    4.4679500000000    4.1555500000000   -0.000952   -0.000010    0.000534 
Ce    5.8238000000000    7.8399500000000    4.1538400000000   -0.001432   -0.001806    0.000599 
Ce    0.0025700000000    2.2356300000000    1.0520100000000   -0.008032   -0.010614   -0.200434 
Ce   -1.9378300000000    5.5967700000000    1.0513900000000    0.002862   -0.003786   -0.188305 
Ce   -3.8646800000000    8.9547000000000    1.0694600000000    0.000107   -0.012031   -0.131038 
Ce    3.8826200000000    2.2416200000000    1.0493700000000    0.008635    0.006976   -0.212757 
Ce    1.9422400000000    5.6003100000000    1.0525300000000   -0.041399    0.019252   -0.202191 
Ce   -0.0078300000000    8.9562400000000    1.0696900000000    0.011351   -0.009351   -0.137342 
Ce    7.7588000000000    2.2362700000000    1.0539200000000   -0.000125   -0.011531   -0.194794 
Ce    5.8226000000000    5.5998900000000    1.0517800000000    0.036549    0.007271   -0.203036 
Ce    3.8817500000000    8.9645600000000    1.0559400000000   -0.003752    0.017383   -0.190390 
 O   -5.8071000000000   10.0698900000000    4.9288600000000    0.000011   -0.000522    0.000855 
 O    9.7007000000000    3.3446900000000    4.9257000000000    0.000060   -0.001143    0.001078 
 O    7.7212200000000    6.6815200000000    4.9381000000000   -0.000847   -0.000161    0.001160 
 O    3.8751600000000    0.1696000000000    5.0264400000000   -0.000174    0.000479    0.001348 
 O    1.9396200000000    3.3642600000000    4.9247800000000    0.000135   -0.000028    0.000097 
 O    0.0334400000000    6.6765900000000    4.8880100000000    0.000027    0.000153    0.000465 
 O    1.9460400000000   10.0760000000000    4.9185200000000    0.000076   -0.000477    0.000493 
 O    5.8211000000000    3.3656600000000    4.9291400000000   -0.000898   -0.000076   -0.000123 
 O    3.8822700000000    6.7255000000000    4.9259300000000   -0.000304   -0.001014   -0.000405 
 O    0.0021900000000    2.2366200000000    3.3472500000000    0.000076    0.000043    0.000114 
 O   -1.9475700000000    5.5967100000000    3.3635000000000    0.000328    0.000461   -0.000813 
 O   -3.8206500000000    8.9510200000000    3.3875000000000    0.000543   -0.000166   -0.000699 
 O    3.8826000000000    2.2640400000000    3.3251100000000   -0.000064    0.000230   -0.000427 
 O    1.9622800000000    5.5922000000000    3.3354400000000    0.001000   -0.000497    0.000736 
 O   -0.0504300000000    8.9630400000000    3.3910000000000   -0.000455   -0.000389    0.000491 
 O    7.7582100000000    2.2411700000000    3.3504000000000   -0.000081   -0.000556    0.000521 
 O    5.8104400000000    5.5957000000000    3.3376500000000   -0.001325   -0.000466    0.000145 
 O    3.8850300000000    8.9575800000000    3.3484100000000   -0.000382   -0.000837   -0.001240 
 O    1.9405500000000    1.1111600000000    1.8565800000000    0.008094    0.006666    0.096433 
 O   -0.0009000000000    4.4795600000000    1.8555000000000   -0.001894    0.003447    0.101164 
 O   -1.9328900000000    7.8167000000000    1.8388000000000    0.001162    0.005632    0.109618 
 O    5.8233300000000    1.1128000000000    1.8582900000000   -0.011574    0.010733    0.101454 
 O    3.8853600000000    4.4859900000000    1.8324400000000   -0.004563   -0.003795    0.100023 
 O    1.9231200000000    7.8516400000000    1.8712200000000    0.005655   -0.007421    0.098047 
 O    9.6987600000000    1.1200400000000    1.8554600000000   -0.000134   -0.000372    0.105866 
 O    7.7612100000000    4.4776600000000    1.8523600000000   -0.003351    0.004534    0.100009 
 O    5.8405200000000    7.8503300000000    1.8666900000000   -0.005661   -0.007763    0.092087 
 O   -5.8171400000000   10.0770300000000    0.2753000000000   -0.009270    0.010473    0.089575 
 O   -1.9371600000000    3.3558800000000    0.2710100000000    0.005348    0.003413    0.083497 
 O    7.7569100000000    6.7155600000000    0.2712800000000   -0.007504   -0.003310    0.075982 
 O   -1.9368600000000   10.0772500000000    0.2798400000000    0.000194   -0.024247    0.076576 
 O    1.9378900000000    3.3572800000000    0.2732100000000    0.002080   -0.008565    0.089132 
 O    0.0085700000000    6.7148400000000    0.2705900000000    0.017368   -0.007274    0.080556 
 O    1.9416300000000   10.0761500000000    0.2749700000000    0.009791    0.005408    0.089396 
 O    5.8242500000000    3.3561200000000    0.2705500000000   -0.000823   -0.010139    0.083099 
 O    3.8805000000000    6.7345200000000    0.2809600000000    0.000565    0.028388    0.096266 
 O   -2.0677600000000    8.3123700000000    6.7280400000000    0.003957    0.005049   -0.005450 
 H   -2.1020900000000    9.2630200000000    6.3850000000000    0.000998   -0.004737    0.002499 
 H   -2.9604500000000    8.0704500000000    7.0353200000000   -0.007068   -0.003812    0.000028 
 C   -0.5230100000000    8.6640000000000   11.3534300000000   -0.001853   -0.002608   -1.120512 
 O   -0.5230100000000    8.6640000000000   10.2000000000000    0.000095    0.004137    1.104296 
59
Iteration: 1   FORCE:    ...   F0:  -468.10778525  ENERGY(s->0):  -468.10778525
Ce    1.9466300000000    1.1410300000000    4.1569300000000    0.000276   -0.000992   -0.000262 
Ce    0.0097400000000    4.4657800000000    4.1520900000000   -0.001148    0.001052    0.000474 
Ce   -1.9261600000000    7.7731500000000    4.1875800000000    0.000898    0.001832    0.004178 
Ce    5.8152400000000    1.1405700000000    4.1648900000000   -0.000965   -0.001866    0.001054 
Ce    3.8816400000000    4.4903000000000    4.1421300000000   -0.001053   -0.001121    0.000798 
Ce    1.9436300000000    7.8410600000000    4.1575200000000   -0.001117   -0.000210    0.001790 
Ce    9.6991600000000    1.1176100000000    4.1577600000000   -0.000323    0.000678   -0.001071 
Ce    7.7518200000000    4.4679500000000    4.1555500000000   -0.000936    0.000121    0.000437 
Ce    5.8238000000000    7.8399500000000    4.1538400000000   -0.001271   -0.001807    0.000545 
Ce    0.0025700000000    2.2356300000000    1.0520100000000   -0.008020   -0.010632   -0.200449 
Ce   -1.9378300000000    5.5967700000000    1.0513900000000    0.002860   -0.003735   -0.188277 
Ce   -3.8646800000000    8.9547000000000    1.0694600000000    0.000149   -0.012035   -0.130999 
Ce    3.8826200000000    2.2416200000000    1.0493700000000    0.008636    0.006951   -0.212749 
Ce    1.9422400000000    5.6003100000000    1.0525300000000   -0.041402    0.019265   -0.202207 
Ce   -0.0078300000000    8.9562400000000    1.0696900000000    0.011314   -0.009355   -0.137280 
Ce    7.7588000000000    2.2362700000000    1.0539200000000   -0.000140   -0.011547   -0.194805 
Ce    5.8226000000000    5.5998900000000    1.0517800000000    0.036553    0.007277   -0.203049 
Ce    3.8817500000000    8.9645600000000    1.0559400000000   -0.003756    0.017384   -0.190404 
 O   -5.8071000000000   10.0698900000000    4.9288600000000   -0.000031   -0.000503    0.000964 
 O    9.7007000000000    3.3446900000000    4.9257000000000    0.000059   -0.001151    0.001235 
 O    7.7212200000000    6.6815200000000    4.9381000000000   -0.001018   -0.000358    0.001164 
 O    3.8751600000000    0.1696000000000    5.0264400000000   -0.000190    0.000893    0.001097 
 O    1.9396200000000    3.3642600000000    4.9247800000000    0.000167    0.000003    0.000248 
 O    0.0334400000000    6.6765900000000    4.8880100000000    0.000167   -0.000047    0.000503 
 O    1.9460400000000   10.0760000000000    4.9185200000000    0.000183   -0.000435    0.000615 
 O    5.8211000000000    3.3656600000000    4.9291400000000   -0.000929   -0.000053    0.000017 
 O    3.8822700000000    6.7255000000000    4.9259300000000   -0.000327   -0.001045   -0.000261 
 O    0.0021900000000    2.2366200000000    3.3472500000000    0.000066    0.000032    0.000125 
 O   -1.9475700000000    5.5967100000000    3.3635000000000    0.000320    0.000361   -0.000842 
 O   -3.8206500000000    8.9510200000000    3.3875000000000    0.000454   -0.000126   -0.000752 
 O    3.8826000000000    2.2640400000000    3.3251100000000   -0.000075    0.000302   -0.000435 
 O    1.9622800000000    5.5922000000000    3.3354400000000    0.001045   -0.000516    0.000745 
 O   -0.0504300000000    8.9630400000000    3.3910000000000   -0.000367   -0.000360    0.000434 
 O    7.7582100000000    2.2411700000000    3.3504000000000   -0.000062   -0.000554    0.000533 
 O    5.8104400000000    5.5957000000000    3.3376500000000   -0.001369   -0.000488    0.000146 
 O    3.8850300000000    8.9575800000000    3.3484100000000   -0.000381   -0.000830   -0.001234 
 O    1.9405500000000    1.1111600000000    1.8565800000000    0.008084    0.006685    0.096431 
 O   -0.0009000000000    4.4795600000000    1.8555000000000   -0.001881    0.003436    0.101162 
 O   -1.9328900000000    7.8167000000000    1.8388000000000    0.001159    0.005625    0.109517 
 O    5.8233300000000    1.1128000000000    1.8582900000000   -0.011571    0.010751    0.101435 
 O    3.8853600000000    4.4859900000000    1.8324400000000   -0.004563   -0.003787    0.100053 
 O    1.9231200000000    7.8516400000000    1.8712200000000    0.005679   -0.007430    0.098039 
 O    9.6987600000000    1.1200400000000    1.8554600000000   -0.000130   -0.000377    0.105886 
 O    7.7612100000000    4.4776600000000    1.8523600000000   -0.003365    0.004530    0.100011 
 O    5.8405200000000    7.8503300000000    1.8666900000000   -0.005684   -0.007771    0.092081 
 O   -5.8171400000000   10.0770300000000    0.2753000000000   -0.009286    0.010481    0.089588 
 O   -1.9371600000000    3.3558800000000    0.2710100000000    0.005352    0.003404    0.083505 
 O    7.7569100000000    6.7155600000000    0.2712800000000   -0.007519   -0.003324    0.075987 
 O   -1.9368600000000   10.0772500000000    0.2798400000000    0.000192   -0.024230    0.076581 
 O    1.9378900000000    3.3572800000000    0.2732100000000    0.002077   -0.008562    0.089144 
 O    0.0085700000000    6.7148400000000    0.2705900000000    0.017382   -0.007288    0.080560 
 O    1.9416300000000   10.0761500000000    0.2749700000000    0.009807    0.005412    0.089407 
 O    5.8242500000000    3.3561200000000    0.2705500000000   -0.000825   -0.010132    0.083110 
 O    3.8805000000000    6.7345200000000    0.2809600000000    0.000565    0.028387    0.096278 
 O   -2.0677600000000    8.3123700000000    6.7280400000000    0.002059    0.004507   -0.008368 
 H   -2.1020900000000    9.2630200000000    6.3850000000000    0.001342   -0.005275    0.003254 
 H   -2.9604500000000    8.0704500000000    7.0353200000000   -0.006906   -0.003618   -0.000458 
 C   -0.5230100000000    8.6640000000000   11.2034300000000   -0.002683   -0.003101   -1.123463 
 O   -0.5230100000000    8.6640000000000   10.0500000000000    0.002449    0.005294    1.108235 
59
Iteration: 14   FORCE:    ...   F0:  -468.10984875  ENERGY(s->0):  -468.10984875
Ce    1.9466300000000    1.1409800000000    4.1568900000000    0.000227   -0.000455    0.000150 
Ce    0.0096800000000    4.4658100000000    4.1521000000000   -0.000406    0.000661    0.000241 
Ce   -1.9261500000000    7.7732500000000    4.1877700000000    0.000647    0.000382    0.001407 
Ce    5.8151500000000    1.1404800000000    4.1649400000000   -0.000244   -0.000787    0.000388 
Ce    3.8815500000000    4.4902100000000    4.1421800000000    0.000082   -0.000045   -0.000075 
Ce    1.9435900000000    7.8410300000000    4.1576200000000   -0.000807    0.000243    0.000475 
Ce    9.6991400000000    1.1176500000000    4.1577000000000   -0.000229   -0.000083   -0.000224 
Ce    7.7517200000000    4.4679400000000    4.1555600000000    0.000165    0.000396    0.000090 
Ce    5.8236900000000    7.8398300000000    4.1538600000000    0.000267    0.000002    0.000072 
Ce    0.0025700000000    2.2356300000000    1.0520100000000   -0.007894   -0.010825   -0.199982 
Ce   -1.9378300000000    5.5967700000000    1.0513900000000    0.002781   -0.003377   -0.187995 
Ce   -3.8646800000000    8.9547000000000    1.0694600000000    0.000225   -0.012259   -0.130774 
Ce    3.8826200000000    2.2416200000000    1.0493700000000    0.008516    0.007066   -0.212273 
Ce    1.9422400000000    5.6003100000000    1.0525300000000   -0.041029    0.019009   -0.201138 
Ce   -0.0078300000000    8.9562400000000    1.0696900000000    0.010956   -0.009592   -0.136950 
Ce    7.7588000000000    2.2362700000000    1.0539200000000   -0.000494   -0.011835   -0.194112 
Ce    5.8226000000000    5.5998900000000    1.0517800000000    0.035849    0.007040   -0.202448 
Ce    3.8817500000000    8.9645600000000    1.0559400000000   -0.003869    0.016983   -0.190357 
 O   -5.8071100000000   10.0698000000000    4.9290400000000   -0.000115   -0.000512   -0.000569 
 O    9.7006900000000    3.3445100000000    4.9259500000000   -0.000188    0.000010   -0.000327 
 O    7.7209500000000    6.6813400000000    4.9383400000000   -0.001386   -0.001263   -0.000656 
 O    3.8751700000000    0.1699600000000    5.0265600000000    0.000551    0.001344    0.001382 
 O    1.9396200000000    3.3642500000000    4.9248600000000   -0.000565   -0.000587   -0.000008 
 O    0.0334900000000    6.6765100000000    4.8881900000000    0.000176   -0.000376    0.000203 
 O    1.9460600000000   10.0759200000000    4.9186700000000    0.000037   -0.000518   -0.000050 
 O    5.8209500000000    3.3656300000000    4.9291800000000    0.000200   -0.000394   -0.000035 
 O    3.8822100000000    6.7253300000000    4.9259500000000   -0.000136    0.000388    0.000296 
 O    0.0021900000000    2.2366200000000    3.3473000000000   -0.000148   -0.000179   -0.000151 
 O   -1.9475300000000    5.5967000000000    3.3634400000000   -0.000433   -0.000207    0.000771 
 O   -3.8206000000000    8.9510400000000    3.3874200000000    0.000028   -0.000233    0.000561 
 O    3.8825600000000    2.2640500000000    3.3250600000000   -0.000284   -0.000350   -0.000542 
 O    1.9623900000000    5.5921000000000    3.3355800000000   -0.000951    0.000101   -0.000631 
 O   -0.0504800000000    8.9630100000000    3.3911100000000   -0.000182   -0.000058    0.000027 
 O    7.7581900000000    2.2410800000000    3.3505200000000   -0.000067    0.000114   -0.000257 
 O    5.8102300000000    5.5956000000000    3.3377000000000    0.000503   -0.000017   -0.000464 
 O    3.8849600000000    8.9574600000000    3.3482500000000    0.000044    0.000031    0.000434 
 O    1.9405500000000    1.1111600000000    1.8565800000000    0.007667    0.006537    0.096631 
 O   -0.0009000000000    4.4795600000000    1.8555000000000   -0.001790    0.003336    0.101615 
 O   -1.9328900000000    7.8167000000000    1.8388000000000    0.001397    0.005729    0.108912 
 O    5.8233300000000    1.1128000000000    1.8582900000000   -0.011490    0.010232    0.101851 
 O    3.8853600000000    4.4859900000000    1.8324400000000   -0.004982   -0.003999    0.099457 
 O    1.9231200000000    7.8516400000000    1.8712200000000    0.004730   -0.007836    0.098367 
 O    9.6987600000000    1.1200400000000    1.8554600000000   -0.000301   -0.000254    0.105962 
 O    7.7612100000000    4.4776600000000    1.8523600000000   -0.003685    0.004133    0.100842 
 O    5.8405200000000    7.8503300000000    1.8666900000000   -0.005540   -0.008152    0.092374 
 O   -5.8171400000000   10.0770300000000    0.2753000000000   -0.009376    0.010556    0.089944 
 O   -1.9371600000000    3.3558800000000    0.2710100000000    0.005147    0.003141    0.083812 
 O    7.7569100000000    6.7155600000000    0.2712800000000   -0.007670   -0.003537    0.076176 
 O   -1.9368600000000   10.0772500000000    0.2798400000000    0.000276   -0.024368    0.076814 
 O    1.9378900000000    3.3572800000000    0.2732100000000    0.001785   -0.008609    0.089343 
 O    0.0085700000000    6.7148400000000    0.2705900000000    0.017420   -0.007334    0.080717 
 O    1.9416300000000   10.0761500000000    0.2749700000000    0.009542    0.005509    0.089703 
 O    5.8242500000000    3.3561200000000    0.2705500000000   -0.000614   -0.010311    0.083300 
 O    3.8805000000000    6.7345200000000    0.2809600000000    0.000397    0.028189    0.096416 
 O   -2.0686300000000    8.3116200000000    6.7262900000000   -0.000545    0.002662   -0.005058 
 H   -2.1019600000000    9.2630100000000    6.3854100000000   -0.000864   -0.006122    0.001524 
 H   -2.9610400000000    8.0700500000000    7.0347600000000   -0.005242   -0.002307   -0.002679 
 C   -0.5230100000000    8.6640000000000   11.0534300000000   -0.003950   -0.003809   -1.127617 
 O   -0.5230100000000    8.6640000000000    9.9000000000000    0.005863    0.006800    1.115114 
59
Iteration: 14   FORCE:    ...   F0:  -468.11147366  ENERGY(s->0):  -468.11147366
Ce    1.9465800000000    1.1408200000000    4.1568300000000   -0.000552   -0.000472    0.001184 
Ce    0.0094800000000    4.4657800000000    4.1520700000000   -0.002239    0.000900    0.002103 
Ce   -1.9262400000000    7.7732300000000    4.1876100000000   -0.000583   -0.004475   -0.004866 
Ce    5.8149900000000    1.1402900000000    4.1650700000000    0.000273   -0.000190    0.001734 
Ce    3.8813400000000    4.4899400000000    4.1421300000000   -0.001522   -0.000822    0.000105 
Ce    1.9434900000000    7.8410000000000    4.1577600000000   -0.001018   -0.000769    0.002456 
Ce    9.6990800000000    1.1175800000000    4.1576400000000   -0.000801   -0.000580    0.001088 
Ce    7.7515200000000    4.4678700000000    4.1555600000000   -0.001745   -0.000189    0.001961 
Ce    5.8234500000000    7.8395900000000    4.1538500000000   -0.001833   -0.003045    0.001802 