59
Iteration: 38   FORCE:    ...   F0:  -468.10447748  ENERGY(s->0):  -468.10447748
Ce    1.9467900000000    1.1413600000000    4.1573400000000   -0.004868    0.000914   -0.001295 
Ce    0.0097900000000    4.4660300000000    4.1519400000000   -0.000206   -0.002907    0.000088 
Ce   -1.9282300000000    7.7721700000000    4.1897600000000    0.001423    0.002002    0.005392 
Ce    5.8154200000000    1.1407500000000    4.1645400000000    0.004781   -0.000508   -0.001124 
Ce    3.8818700000000    4.4902100000000    4.1425400000000   -0.001001    0.001049   -0.004111 
Ce    1.9430600000000    7.8408000000000    4.1574100000000    0.001551    0.001165    0.000784 
Ce    9.6992500000000    1.1172500000000    4.1576600000000   -0.000540    0.001814    0.000128 
Ce    7.7525200000000    4.4679100000000    4.1552200000000    0.000698   -0.003963   -0.000840 
Ce    5.8240600000000    7.8402800000000    4.1543000000000   -0.003144    0.001416   -0.000607 
Ce    0.0025700000000    2.2356300000000    1.0520100000000   -0.007065   -0.010684   -0.198656 
Ce   -1.9378300000000    5.5967700000000    1.0513900000000    0.005195    0.000062   -0.188156 
Ce   -3.8646800000000    8.9547000000000    1.0694600000000    0.002882   -0.011381   -0.129001 
Ce    3.8826200000000    2.2416200000000    1.0493700000000    0.006349    0.007494   -0.213593 
Ce    1.9422400000000    5.6003100000000    1.0525300000000   -0.040520    0.017765   -0.201756 
Ce   -0.0078300000000    8.9562400000000    1.0696900000000    0.006428   -0.012690   -0.131029 
Ce    7.7588000000000    2.2362700000000    1.0539200000000    0.001495   -0.012145   -0.196030 
Ce    5.8226000000000    5.5998900000000    1.0517800000000    0.035170    0.008322   -0.200274 
Ce    3.8817500000000    8.9645600000000    1.0559400000000   -0.002907    0.016937   -0.189193 
 O   -5.8081700000000   10.0698500000000    4.9289800000000    0.002324    0.000131   -0.001431 
 O    9.7004200000000    3.3442600000000    4.9263600000000   -0.000384    0.002190   -0.000448 
 O    7.7253700000000    6.6824600000000    4.9361000000000   -0.001662   -0.003309   -0.000832 
 O    3.8759000000000    0.1717800000000    5.0276000000000   -0.000048    0.006058   -0.001525 
 O    1.9398500000000    3.3641500000000    4.9251300000000    0.001914   -0.001108   -0.000339 
 O    0.0337300000000    6.6752000000000    4.8878700000000    0.001070   -0.002904   -0.001565 
 O    1.9462300000000   10.0755900000000    4.9188500000000   -0.002306    0.000561   -0.001101 
 O    5.8214700000000    3.3659300000000    4.9288900000000   -0.001736   -0.000787    0.000412 
 O    3.8826500000000    6.7256300000000    4.9265900000000    0.000407   -0.001980   -0.001671 
 O    0.0021000000000    2.2367700000000    3.3473300000000    0.002576   -0.001087    0.000418 
 O   -1.9469200000000    5.5963600000000    3.3634400000000   -0.000588   -0.002002   -0.002376 
 O   -3.8206400000000    8.9521000000000    3.3879600000000    0.000920   -0.000721    0.000049 
 O    3.8825400000000    2.2639100000000    3.3249400000000    0.000138    0.002262    0.001518 
 O    1.9627700000000    5.5919500000000    3.3354700000000    0.000932    0.000414    0.000736 
 O   -0.0510800000000    8.9627800000000    3.3916700000000   -0.000869   -0.000076    0.001077 
 O    7.7586300000000    2.2411200000000    3.3502700000000   -0.002889   -0.000202    0.000410 
 O    5.8107300000000    5.5960500000000    3.3381600000000   -0.000141    0.000699    0.001693 
 O    3.8850000000000    8.9572500000000    3.3482900000000    0.000696   -0.001959   -0.001284 
 O    1.9405500000000    1.1111600000000    1.8565800000000    0.007746    0.008026    0.097983 
 O   -0.0009000000000    4.4795600000000    1.8555000000000   -0.000336    0.003358    0.099553 
 O   -1.9328900000000    7.8167000000000    1.8388000000000   -0.003155    0.004357    0.117427 
 O    5.8233300000000    1.1128000000000    1.8582900000000   -0.010356    0.010490    0.101608 
 O    3.8853600000000    4.4859900000000    1.8324400000000   -0.001654   -0.003863    0.102023 
 O    1.9231200000000    7.8516400000000    1.8712200000000    0.003450   -0.007181    0.098446 
 O    9.6987600000000    1.1200400000000    1.8554600000000    0.000287   -0.001331    0.104430 
 O    7.7612100000000    4.4776600000000    1.8523600000000   -0.003413    0.004604    0.100811 
 O    5.8405200000000    7.8503300000000    1.8666900000000   -0.003458   -0.007269    0.096175 
 O   -5.8171400000000   10.0770300000000    0.2753000000000   -0.009021    0.010137    0.089706 
 O   -1.9371600000000    3.3558800000000    0.2710100000000    0.004817    0.003466    0.083933 
 O    7.7569100000000    6.7155600000000    0.2712800000000   -0.008732   -0.003932    0.075718 
 O   -1.9368600000000   10.0772500000000    0.2798400000000    0.000525   -0.023908    0.076320 
 O    1.9378900000000    3.3572800000000    0.2732100000000    0.002268   -0.008306    0.089356 
 O    0.0085700000000    6.7148400000000    0.2705900000000    0.017939   -0.007129    0.080146 
 O    1.9416300000000   10.0761500000000    0.2749700000000    0.009170    0.005435    0.089786 
 O    5.8242500000000    3.3561200000000    0.2705500000000   -0.000449   -0.009644    0.083644 
 O    3.8805000000000    6.7345200000000    0.2809600000000    0.001015    0.027955    0.096460 
 O   -2.0144700000000    8.3284700000000    6.7350600000000   -0.007862    0.002810   -0.003364 
 H   -2.0610600000000    9.2767500000000    6.3830600000000   -0.000997   -0.005954    0.003312 
 H   -2.8849900000000    8.1034100000000    7.1102300000000   -0.000943    0.000072   -0.009535 
 C    3.8757800000000    0.1838400000000   11.6534300000000    0.004211   -0.002052   -1.098257 
 O    3.8757800000000    0.1838400000000   10.5000000000000   -0.007127   -0.000981    1.079852 
59
Iteration: 2   FORCE:    ...   F0:  -468.10740856  ENERGY(s->0):  -468.10740856
Ce    1.9467400000000    1.1413600000000    4.1573400000000   -0.000665    0.000310   -0.000626 
Ce    0.0097800000000    4.4660000000000    4.1519400000000    0.000263   -0.000303   -0.000140 
Ce   -1.9282200000000    7.7721900000000    4.1898200000000    0.000518    0.000490    0.000722 
Ce    5.8154700000000    1.1407300000000    4.1645300000000    0.000567   -0.000021   -0.000523 
Ce    3.8818600000000    4.4902300000000    4.1425100000000   -0.000076    0.000052   -0.000941 
Ce    1.9430700000000    7.8408100000000    4.1574100000000    0.000563    0.000131   -0.000023 
Ce    9.6992400000000    1.1172700000000    4.1576700000000   -0.000096    0.000177   -0.000551 
Ce    7.7525300000000    4.4678700000000    4.1552200000000   -0.000233   -0.000318   -0.000366 
Ce    5.8240400000000    7.8402900000000    4.1543000000000   -0.000708    0.000057   -0.000383 
Ce    0.0025700000000    2.2356300000000    1.0520100000000   -0.007048   -0.010878   -0.198903 
Ce   -1.9378300000000    5.5967700000000    1.0513900000000    0.005188    0.000613   -0.187925 
Ce   -3.8646800000000    8.9547000000000    1.0694600000000    0.003188   -0.011552   -0.128684 
Ce    3.8826200000000    2.2416200000000    1.0493700000000    0.006426    0.006969   -0.213269 
Ce    1.9422400000000    5.6003100000000    1.0525300000000   -0.040853    0.018037   -0.201848 
Ce   -0.0078300000000    8.9562400000000    1.0696900000000    0.006246   -0.012791   -0.130706 
Ce    7.7588000000000    2.2362700000000    1.0539200000000    0.001571   -0.012293   -0.196254 
Ce    5.8226000000000    5.5998900000000    1.0517800000000    0.035682    0.008591   -0.200336 
Ce    3.8817500000000    8.9645600000000    1.0559400000000   -0.002822    0.017224   -0.189341 
 O   -5.8081500000000   10.0698500000000    4.9289700000000    0.002326    0.000497   -0.001188 
 O    9.7004200000000    3.3442800000000    4.9263700000000   -0.000350    0.002272    0.000095 
 O    7.7253600000000    6.6824400000000    4.9361000000000   -0.002438   -0.003918   -0.001213 
 O    3.8759000000000    0.1718200000000    5.0275700000000    0.000210    0.006435   -0.003703 
 O    1.9398600000000    3.3641400000000    4.9251300000000    0.001840   -0.001123    0.000325 
 O    0.0337400000000    6.6751800000000    4.8878600000000    0.001501   -0.003243   -0.001623 
 O    1.9462100000000   10.0755900000000    4.9188400000000   -0.002080    0.001019   -0.000795 
 O    5.8214600000000    3.3659200000000    4.9289000000000   -0.001585   -0.000831    0.001151 
 O    3.8826600000000    6.7256200000000    4.9265700000000    0.000400   -0.002347   -0.001259 
 O    0.0021200000000    2.2367500000000    3.3473300000000    0.002611   -0.001675    0.000691 
 O   -1.9469300000000    5.5963500000000    3.3634200000000   -0.000718   -0.001927   -0.002559 
 O   -3.8206400000000    8.9520800000000    3.3879600000000    0.000738   -0.001203    0.000170 
 O    3.8825400000000    2.2639200000000    3.3249500000000    0.000303    0.002427    0.001173 
 O    1.9627800000000    5.5919600000000    3.3354800000000    0.000850    0.000704    0.000862 
 O   -0.0510800000000    8.9627700000000    3.3916800000000   -0.000492   -0.000323    0.001325 
 O    7.7586000000000    2.2411200000000    3.3502700000000   -0.002959   -0.000700    0.000572 
 O    5.8107300000000    5.5960600000000    3.3381800000000    0.000142    0.000912    0.001932 
 O    3.8850100000000    8.9572300000000    3.3482800000000    0.000752   -0.001550   -0.000747 
 O    1.9405500000000    1.1111600000000    1.8565800000000    0.007861    0.007915    0.098066 
 O   -0.0009000000000    4.4795600000000    1.8555000000000    0.000004    0.003450    0.099637 
 O   -1.9328900000000    7.8167000000000    1.8388000000000   -0.003032    0.004456    0.117778 
 O    5.8233300000000    1.1128000000000    1.8582900000000   -0.010315    0.010304    0.101754 
 O    3.8853600000000    4.4859900000000    1.8324400000000   -0.001600   -0.003555    0.101684 
 O    1.9231200000000    7.8516400000000    1.8712200000000    0.003419   -0.007165    0.098511 
 O    9.6987600000000    1.1200400000000    1.8554600000000    0.000321   -0.001462    0.105116 
 O    7.7612100000000    4.4776600000000    1.8523600000000   -0.003619    0.004655    0.100768 
 O    5.8405200000000    7.8503300000000    1.8666900000000   -0.003381   -0.007281    0.096026 
 O   -5.8171400000000   10.0770300000000    0.2753000000000   -0.009260    0.010318    0.089800 
 O   -1.9371600000000    3.3558800000000    0.2710100000000    0.004872    0.003123    0.083861 
 O    7.7569100000000    6.7155600000000    0.2712800000000   -0.008916   -0.004054    0.075917 
 O   -1.9368600000000   10.0772500000000    0.2798400000000    0.000613   -0.023638    0.076538 
 O    1.9378900000000    3.3572800000000    0.2732100000000    0.002243   -0.008277    0.089293 
 O    0.0085700000000    6.7148400000000    0.2705900000000    0.018257   -0.007228    0.080346 
 O    1.9416300000000   10.0761500000000    0.2749700000000    0.009512    0.005611    0.089903 
 O    5.8242500000000    3.3561200000000    0.2705500000000   -0.000299   -0.009631    0.083589 
 O    3.8805000000000    6.7345200000000    0.2809600000000    0.001068    0.028051    0.096367 
 O   -2.0145500000000    8.3285000000000    6.7350200000000   -0.007795    0.000604   -0.005652 
 H   -2.0610700000000    9.2766900000000    6.3831100000000   -0.001382   -0.002594    0.004356 
 H   -2.8850000000000    8.1034100000000    7.1101400000000   -0.004103    0.000222   -0.007697 
 C    3.8757800000000    0.1838400000000   11.5034300000000    0.004731   -0.002529   -1.098718 
 O    3.8757800000000    0.1838400000000   10.3500000000000   -0.007960   -0.001215    1.077642 
59
Iteration: 1   FORCE:    ...   F0:  -468.11077221  ENERGY(s->0):  -468.11077221
Ce    1.9467400000000    1.1413600000000    4.1573400000000   -0.002849   -0.000311    0.000244 
Ce    0.0097800000000    4.4660000000000    4.1519400000000    0.000096   -0.001994    0.000232 
Ce   -1.9282200000000    7.7721900000000    4.1898200000000    0.000801    0.002502    0.005710 
Ce    5.8154700000000    1.1407300000000    4.1645300000000    0.002707   -0.001168   -0.000081 
Ce    3.8818600000000    4.4902300000000    4.1425100000000   -0.000719    0.000780   -0.003171 
Ce    1.9430700000000    7.8408100000000    4.1574100000000    0.000865    0.000823    0.000493 
Ce    9.6992400000000    1.1172700000000    4.1576700000000   -0.000418    0.001397    0.000258 
Ce    7.7525300000000    4.4678700000000    4.1552200000000    0.000281   -0.002587   -0.000423 
Ce    5.8240400000000    7.8402900000000    4.1543000000000   -0.001613    0.001079   -0.000122 
Ce    0.0025700000000    2.2356300000000    1.0520100000000   -0.006898   -0.010862   -0.199437 
Ce   -1.9378300000000    5.5967700000000    1.0513900000000    0.005146    0.000894   -0.188260 
Ce   -3.8646800000000    8.9547000000000    1.0694600000000    0.003454   -0.011822   -0.129150 
Ce    3.8826200000000    2.2416200000000    1.0493700000000    0.006407    0.006979   -0.213633 
Ce    1.9422400000000    5.6003100000000    1.0525300000000   -0.040907    0.018215   -0.202230 
Ce   -0.0078300000000    8.9562400000000    1.0696900000000    0.005936   -0.013031   -0.131121 
Ce    7.7588000000000    2.2362700000000    1.0539200000000    0.001339   -0.012276   -0.196757 
Ce    5.8226000000000    5.5998900000000    1.0517800000000    0.035673    0.008754   -0.200648 
Ce    3.8817500000000    8.9645600000000    1.0559400000000   -0.002867    0.016861   -0.189943 
 O   -5.8081500000000   10.0698500000000    4.9289700000000    0.001676    0.000113   -0.000527 
 O    9.7004200000000    3.3442800000000    4.9263700000000   -0.000343    0.001653    0.000420 
 O    7.7253600000000    6.6824400000000    4.9361000000000   -0.001641   -0.002425   -0.000600 
 O    3.8759000000000    0.1718200000000    5.0275700000000    0.000151    0.004105   -0.003269 
 O    1.9398600000000    3.3641400000000    4.9251300000000    0.001275   -0.000755    0.000438 
 O    0.0337400000000    6.6751800000000    4.8878600000000    0.001092   -0.001978   -0.001057 
 O    1.9462100000000   10.0755900000000    4.9188400000000   -0.001670    0.000489   -0.000308 
 O    5.8214600000000    3.3659200000000    4.9289000000000   -0.001099   -0.000710    0.001033 
 O    3.8826600000000    6.7256200000000    4.9265700000000    0.000155   -0.001479   -0.000981 
 O    0.0021200000000    2.2367500000000    3.3473300000000    0.001854   -0.001205    0.000338 
 O   -1.9469300000000    5.5963500000000    3.3634200000000   -0.000559   -0.001071   -0.001892 
 O   -3.8206400000000    8.9520800000000    3.3879600000000    0.000675   -0.001295    0.000479 
 O    3.8825400000000    2.2639200000000    3.3249500000000    0.000290    0.001971    0.000649 
 O    1.9627800000000    5.5919600000000    3.3354800000000    0.000726    0.000854    0.000508 
 O   -0.0510800000000    8.9627700000000    3.3916800000000   -0.000387   -0.000566    0.001274 
 O    7.7586000000000    2.2411200000000    3.3502700000000   -0.002289   -0.000547    0.000331 
 O    5.8107300000000    5.5960600000000    3.3381800000000   -0.000082    0.000874    0.001263 
 O    3.8850100000000    8.9572300000000    3.3482800000000    0.000419   -0.001557   -0.000612 
 O    1.9405500000000    1.1111600000000    1.8565800000000    0.007669    0.007964    0.097686 
 O   -0.0009000000000    4.4795600000000    1.8555000000000   -0.000161    0.003498    0.099290 
 O   -1.9328900000000    7.8167000000000    1.8388000000000   -0.003104    0.004347    0.118080 
 O    5.8233300000000    1.1128000000000    1.8582900000000   -0.010215    0.010355    0.101576 
 O    3.8853600000000    4.4859900000000    1.8324400000000   -0.001646   -0.003492    0.101617 
 O    1.9231200000000    7.8516400000000    1.8712200000000    0.003467   -0.007335    0.098783 
 O    9.6987600000000    1.1200400000000    1.8554600000000    0.000309   -0.001418    0.104649 
 O    7.7612100000000    4.4776600000000    1.8523600000000   -0.003525    0.004717    0.100474 
 O    5.8405200000000    7.8503300000000    1.8666900000000   -0.003496   -0.007439    0.096142 
 O   -5.8171400000000   10.0770300000000    0.2753000000000   -0.009252    0.010343    0.089494 
 O   -1.9371600000000    3.3558800000000    0.2710100000000    0.004861    0.003198    0.083624 
 O    7.7569100000000    6.7155600000000    0.2712800000000   -0.008815   -0.004027    0.075751 
 O   -1.9368600000000   10.0772500000000    0.2798400000000    0.000577   -0.023890    0.076233 
 O    1.9378900000000    3.3572800000000    0.2732100000000    0.002082   -0.008330    0.089017 
 O    0.0085700000000    6.7148400000000    0.2705900000000    0.018091   -0.007203    0.080190 
 O    1.9416300000000   10.0761500000000    0.2749700000000    0.009424    0.005601    0.089611 
 O    5.8242500000000    3.3561200000000    0.2705500000000   -0.000237   -0.009677    0.083310 
 O    3.8805000000000    6.7345200000000    0.2809600000000    0.001022    0.028098    0.096186 
 O   -2.0145500000000    8.3285000000000    6.7350200000000   -0.004699   -0.000805   -0.005434 
 H   -2.0610700000000    9.2766900000000    6.3831100000000   -0.001189   -0.002069    0.006075 
 H   -2.8850000000000    8.1034100000000    7.1101400000000   -0.003995    0.001001   -0.007261 
 C    3.8757800000000    0.1838400000000   11.3534300000000    0.005192   -0.003101   -1.098695 
 O    3.8757800000000    0.1838400000000   10.2000000000000   -0.009035   -0.001044    1.074151 
59
Iteration: 1   FORCE:    ...   F0:  -468.11446013  ENERGY(s->0):  -468.11446013
Ce    1.9467400000000    1.1413600000000    4.1573400000000   -0.002222   -0.000656    0.000832 
Ce    0.0097800000000    4.4660000000000    4.1519400000000    0.000116   -0.001940    0.000058 
Ce   -1.9282200000000    7.7721900000000    4.1898200000000    0.000691    0.003034    0.006597 
Ce    5.8154700000000    1.1407300000000    4.1645300000000    0.002032   -0.001482    0.000386 
Ce    3.8818600000000    4.4902300000000    4.1425100000000   -0.000727    0.000595   -0.003310 
Ce    1.9430700000000    7.8408100000000    4.1574100000000    0.000694    0.000848    0.000284 
Ce    9.6992400000000    1.1172700000000    4.1576700000000   -0.000370    0.001377    0.000056 
Ce    7.7525300000000    4.4678700000000    4.1552200000000    0.000268   -0.002469   -0.000588 
Ce    5.8240400000000    7.8402900000000    4.1543000000000   -0.001379    0.001137   -0.000232 
Ce    0.0025700000000    2.2356300000000    1.0520100000000   -0.006859   -0.010879   -0.199447 
Ce   -1.9378300000000    5.5967700000000    1.0513900000000    0.005143    0.000946   -0.188241 
Ce   -3.8646800000000    8.9547000000000    1.0694600000000    0.003504   -0.011808   -0.129073 
Ce    3.8826200000000    2.2416200000000    1.0493700000000    0.006401    0.006930   -0.213578 
Ce    1.9422400000000    5.6003100000000    1.0525300000000   -0.040918    0.018209   -0.202259 
Ce   -0.0078300000000    8.9562400000000    1.0696900000000    0.005879   -0.013021   -0.131058 
Ce    7.7588000000000    2.2362700000000    1.0539200000000    0.001307   -0.012285   -0.196774 
Ce    5.8226000000000    5.5998900000000    1.0517800000000    0.035688    0.008756   -0.200670 
Ce    3.8817500000000    8.9645600000000    1.0559400000000   -0.002861    0.016859   -0.189981 
 O   -5.8081500000000   10.0698500000000    4.9289700000000    0.001522    0.000090   -0.000383 
 O    9.7004200000000    3.3442800000000    4.9263700000000   -0.000351    0.001636    0.000600 
 O    7.7253600000000    6.6824400000000    4.9361000000000   -0.001855   -0.002610   -0.000551 
 O    3.8759000000000    0.1718200000000    5.0275700000000    0.000219    0.004273   -0.004093 
 O    1.9398600000000    3.3641400000000    4.9251300000000    0.001226   -0.000602    0.000577 
 O    0.0337400000000    6.6751800000000    4.8878600000000    0.001296   -0.002100   -0.000918 
 O    1.9462100000000   10.0755900000000    4.9188400000000   -0.001560    0.000456   -0.000067 
 O    5.8214600000000    3.3659200000000    4.9289000000000   -0.001045   -0.000583    0.001212 
 O    3.8826600000000    6.7256200000000    4.9265700000000    0.000139   -0.001476   -0.000795 
 O    0.0021200000000    2.2367500000000    3.3473300000000    0.001802   -0.001177    0.000363 
 O   -1.9469300000000    5.5963500000000    3.3634200000000   -0.000555   -0.001207   -0.001895 
 O   -3.8206400000000    8.9520800000000    3.3879600000000    0.000527   -0.001321    0.000413 
 O    3.8825400000000    2.2639200000000    3.3249500000000    0.000291    0.002104    0.000600 
 O    1.9627800000000    5.5919600000000    3.3354800000000    0.000732    0.000859    0.000539 
 O   -0.0510800000000    8.9627700000000    3.3916800000000   -0.000228   -0.000598    0.001220 
 O    7.7586000000000    2.2411200000000    3.3502700000000   -0.002238   -0.000523    0.000364 
 O    5.8107300000000    5.5960600000000    3.3381800000000   -0.000095    0.000867    0.001293 
 O    3.8850100000000    8.9572300000000    3.3482800000000    0.000408   -0.001558   -0.000572 
 O    1.9405500000000    1.1111600000000    1.8565800000000    0.007649    0.007984    0.097634 
 O   -0.0009000000000    4.4795600000000    1.8555000000000   -0.000150    0.003495    0.099329 
 O   -1.9328900000000    7.8167000000000    1.8388000000000   -0.003099    0.004327    0.117956 
 O    5.8233300000000    1.1128000000000    1.8582900000000   -0.010191    0.010372    0.101528 
 O    3.8853600000000    4.4859900000000    1.8324400000000   -0.001647   -0.003470    0.101642 
 O    1.9231200000000    7.8516400000000    1.8712200000000    0.003491   -0.007350    0.098819 
 O    9.6987600000000    1.1200400000000    1.8554600000000    0.000306   -0.001419    0.104692 
 O    7.7612100000000    4.4776600000000    1.8523600000000   -0.003535    0.004709    0.100514 
 O    5.8405200000000    7.8503300000000    1.8666900000000   -0.003524   -0.007454    0.096169 
 O   -5.8171400000000   10.0770300000000    0.2753000000000   -0.009277    0.010349    0.089497 
 O   -1.9371600000000    3.3558800000000    0.2710100000000    0.004859    0.003188    0.083634 
 O    7.7569100000000    6.7155600000000    0.2712800000000   -0.008830   -0.004048    0.075755 
 O   -1.9368600000000   10.0772500000000    0.2798400000000    0.000580   -0.023881    0.076227 
 O    1.9378900000000    3.3572800000000    0.2732100000000    0.002071   -0.008316    0.089021 
 O    0.0085700000000    6.7148400000000    0.2705900000000    0.018107   -0.007222    0.080194 
 O    1.9416300000000   10.0761500000000    0.2749700000000    0.009445    0.005608    0.089616 
 O    5.8242500000000    3.3561200000000    0.2705500000000   -0.000223   -0.009666    0.083315 
 O    3.8805000000000    6.7345200000000    0.2809600000000    0.001020    0.028098    0.096192 
 O   -2.0145500000000    8.3285000000000    6.7350200000000   -0.004744   -0.002479   -0.007611 
 H   -2.0610700000000    9.2766900000000    6.3831100000000   -0.001051   -0.001686    0.008344 
 H   -2.8850000000000    8.1034100000000    7.1101400000000   -0.003531    0.002032   -0.007132 
 C    3.8757800000000    0.1838400000000   11.2034300000000    0.005765   -0.003762   -1.099395 
 O    3.8757800000000    0.1838400000000   10.0500000000000   -0.010118   -0.000088    1.073148 
59
Iteration: 13   FORCE:    ...   F0:  -468.11841259  ENERGY(s->0):  -468.11841259
Ce    1.9466300000000    1.1414400000000    4.1573200000000    0.000357   -0.000064   -0.000223 
Ce    0.0098400000000    4.4658200000000    4.1518400000000    0.000111   -0.000041   -0.000173 
Ce   -1.9282400000000    7.7722600000000    4.1899800000000    0.000677    0.000587    0.001974 
Ce    5.8155200000000    1.1408400000000    4.1645200000000   -0.000935   -0.000809    0.000582 
Ce    3.8818600000000    4.4901000000000    4.1420300000000    0.000322    0.000601   -0.000613 
Ce    1.9432200000000    7.8407100000000    4.1573100000000   -0.000185   -0.000042   -0.000127 
Ce    9.6991800000000    1.1174800000000    4.1576000000000   -0.000113    0.000501   -0.001135 
Ce    7.7523800000000    4.4677100000000    4.1551200000000   -0.000268    0.000163   -0.000195 
Ce    5.8239000000000    7.8401600000000    4.1541400000000   -0.000093   -0.000466   -0.000574 
Ce    0.0025700000000    2.2356300000000    1.0520100000000   -0.006433   -0.011113   -0.198431 
Ce   -1.9378300000000    5.5967700000000    1.0513900000000    0.004922    0.001120   -0.187311 
Ce   -3.8646800000000    8.9547000000000    1.0694600000000    0.004447   -0.012241   -0.127122 
Ce    3.8826200000000    2.2416200000000    1.0493700000000    0.006534    0.007170   -0.213494 
Ce    1.9422400000000    5.6003100000000    1.0525300000000   -0.040953    0.018131   -0.202574 
Ce   -0.0078300000000    8.9562400000000    1.0696900000000    0.005095   -0.013270   -0.128387 
Ce    7.7588000000000    2.2362700000000    1.0539200000000    0.000652   -0.012293   -0.196322 
Ce    5.8226000000000    5.5998900000000    1.0517800000000    0.035892    0.008481   -0.200921 
Ce    3.8817500000000    8.9645600000000    1.0559400000000   -0.002847    0.016720   -0.189322 
 O   -5.8079900000000   10.0700600000000    4.9289900000000    0.000700   -0.002433   -0.000267 
 O    9.7004100000000    3.3442600000000    4.9264800000000   -0.000593    0.001100   -0.000681 
 O    7.7248400000000    6.6815700000000    4.9361700000000   -0.001083   -0.001140    0.000562 
 O    3.8760400000000    0.1730100000000    5.0264500000000    0.002729    0.003822    0.002327 
 O    1.9398000000000    3.3639200000000    4.9252500000000    0.000761    0.001358   -0.000502 
 O    0.0340300000000    6.6744600000000    4.8879000000000   -0.000332    0.000003    0.000970 
 O    1.9461500000000   10.0758400000000    4.9189900000000    0.000063   -0.001637   -0.000111 
 O    5.8214300000000    3.3656800000000    4.9292000000000   -0.000268    0.001905   -0.000457 
 O    3.8826000000000    6.7255000000000    4.9263400000000    0.000470   -0.000545    0.000169 
 O    0.0022300000000    2.2364400000000    3.3474700000000   -0.000096    0.002572   -0.002811 
 O   -1.9469900000000    5.5961400000000    3.3632100000000   -0.000550    0.001004    0.000253 
 O   -3.8205200000000    8.9516600000000    3.3883000000000   -0.000632   -0.001146   -0.001397 
 O    3.8825400000000    2.2647200000000    3.3245400000000   -0.000017    0.000705    0.000146 
 O    1.9628800000000    5.5920600000000    3.3353000000000    0.000971   -0.001717    0.000351 
 O   -0.0510800000000    8.9624500000000    3.3921900000000    0.000345   -0.001120   -0.002446 
 O    7.7584200000000    2.2408700000000    3.3503100000000   -0.000014    0.003006   -0.001637 
 O    5.8106500000000    5.5961500000000    3.3380600000000   -0.000804   -0.001786    0.000197 
 O    3.8850500000000    8.9572100000000    3.3482500000000    0.000172   -0.001293   -0.000548 
 O    1.9405500000000    1.1111600000000    1.8565800000000    0.007531    0.006216    0.097673 
 O   -0.0009000000000    4.4795600000000    1.8555000000000    0.000356    0.001876    0.099103 
 O   -1.9328900000000    7.8167000000000    1.8388000000000   -0.002625    0.005305    0.117828 
 O    5.8233300000000    1.1128000000000    1.8582900000000   -0.010349    0.008398    0.101188 
 O    3.8853600000000    4.4859900000000    1.8324400000000   -0.001566   -0.001551    0.098650 
 O    1.9231200000000    7.8516400000000    1.8712200000000    0.003405   -0.006365    0.098341 
 O    9.6987600000000    1.1200400000000    1.8554600000000    0.000244   -0.000969    0.104251 
 O    7.7612100000000    4.4776600000000    1.8523600000000   -0.004276    0.003335    0.100007 
 O    5.8405200000000    7.8503300000000    1.8666900000000   -0.003508   -0.006707    0.095546 
 O   -5.8171400000000   10.0770300000000    0.2753000000000   -0.009160    0.010215    0.089930 
 O   -1.9371600000000    3.3558800000000    0.2710100000000    0.004966    0.002693    0.084027 
 O    7.7569100000000    6.7155600000000    0.2712800000000   -0.009027   -0.003559    0.076049 
 O   -1.9368600000000   10.0772500000000    0.2798400000000    0.000694   -0.024872    0.076601 
 O    1.9378900000000    3.3572800000000    0.2732100000000    0.001489   -0.008348    0.089381 
 O    0.0085700000000    6.7148400000000    0.2705900000000    0.018299   -0.006624    0.080461 
 O    1.9416300000000   10.0761500000000    0.2749700000000    0.009249    0.005322    0.089995 
 O    5.8242500000000    3.3561200000000    0.2705500000000    0.000284   -0.009620    0.083672 
 O    3.8805000000000    6.7345200000000    0.2809600000000    0.001068    0.028426    0.096692 
 O   -2.0170000000000    8.3266600000000    6.7317500000000   -0.003044   -0.003104    0.004886 
 H   -2.0605600000000    9.2769300000000    6.3870200000000   -0.001129    0.000259   -0.003524 
 H   -2.8876500000000    8.1033800000000    7.1072100000000   -0.007118   -0.003180   -0.004251 
 C    3.8757800000000    0.1838400000000   11.0534300000000    0.006417   -0.004527   -1.100161 
 O    3.8757800000000    0.1838400000000    9.9000000000000   -0.011202    0.001588    1.073902 
59
Iteration: 1   FORCE:    ...   F0:  -468.12240889  ENERGY(s->0):  -468.12240889
Ce    1.9466300000000    1.1414400000000    4.1573200000000    0.001231   -0.001048    0.002250 
Ce    0.0098400000000    4.4658200000000    4.1518400000000   -0.000313   -0.000657    0.001320 
Ce   -1.9282400000000    7.7722600000000    4.1899800000000    0.000208    0.001229   -0.001308 
Ce    5.8155200000000    1.1408400000000    4.1645200000000   -0.001071   -0.001473    0.001648 
Ce    3.8818600000000    4.4901000000000    4.1420300000000   -0.000727   -0.000245    0.000878 
Ce    1.9432200000000    7.8407100000000    4.1573100000000   -0.000886    0.001296    0.000646 
Ce    9.6991800000000    1.1174800000000    4.1576000000000    0.000105   -0.001136    0.001952 
Ce    7.7523800000000    4.4677100000000    4.1551200000000    0.000702   -0.000882    0.001141 
Ce    5.8239000000000    7.8401600000000    4.1541400000000    0.000261    0.001553    0.000916 