59
Iteration: 130   FORCE:    ...   F0:  -468.15957283  ENERGY(s->0):  -468.15957283
Ce    1.9252100000000    1.1413500000000    4.1432200000000   -0.001319   -0.000773    0.002134 
Ce    0.0166600000000    4.4077800000000    4.1589400000000    0.000770   -0.003863    0.001416 
Ce   -2.0667000000000    7.9114400000000    4.2553800000000   -0.007015    0.003826   -0.001727 
Ce    5.8090700000000    1.1248600000000    4.1630200000000    0.002567    0.002282    0.000291 
Ce    3.8785600000000    4.4793700000000    4.1248700000000   -0.000703   -0.001007   -0.004764 
Ce    2.0104800000000    7.8611300000000    4.1560000000000    0.005641    0.003206   -0.000291 
Ce    9.6983800000000    1.1195200000000    4.1579800000000    0.001000   -0.001428   -0.001105 
Ce    7.7486100000000    4.4835000000000    4.1647600000000   -0.000718   -0.004821    0.000179 
Ce    5.7938600000000    7.8404200000000    4.1432900000000   -0.001456    0.002643    0.001652 
Ce   -0.0076600000000    2.2417100000000    1.0356000000000   -0.009996    0.010474   -0.258979 
Ce   -1.9332500000000    5.6215600000000    1.0900300000000   -0.040251    0.017390   -0.018343 
Ce   -3.8793900000000    8.9592200000000    1.0463300000000    0.019674   -0.016232   -0.198893 
Ce    3.8743500000000    2.2404100000000    1.0469100000000   -0.044151   -0.068731   -0.224574 
Ce    1.9341500000000    5.6020000000000    1.0518100000000    0.028415   -0.017088   -0.215740 
Ce   -0.0167600000000    8.9427800000000    1.0892500000000   -0.033146    0.024065   -0.022971 
Ce    7.7652500000000    2.2359100000000    1.0603000000000    0.044392   -0.023666   -0.166945 
Ce    5.8162000000000    5.6029100000000    1.0478700000000    0.042452    0.074293   -0.225370 
Ce    3.8740500000000    8.9648500000000    1.0347300000000   -0.011158    0.003030   -0.256527 
 O   11.6071600000000    0.0166200000000    4.9326100000000   -0.002330    0.001344   -0.002789 
 O   -1.9294700000000    3.3414000000000    4.9149200000000   -0.000284   -0.000444   -0.000354 
 O    7.6227100000000    6.6909500000000    4.8754200000000    0.000859   -0.000391   -0.001881 
 O    3.8314800000000    0.1355800000000    4.8884800000000    0.002100   -0.000069   -0.003327 
 O    1.9323400000000    3.3430500000000    4.9101500000000    0.002299    0.000126    0.000280 
 O    0.4303900000000    6.4709100000000    5.2941200000000   -0.000341   -0.003435   -0.004002 
 O    1.9595700000000   10.0770900000000    4.9168800000000    0.000692    0.000206   -0.000133 
 O    5.8203600000000    3.3566700000000    4.9299000000000   -0.001422    0.002001    0.000903 
 O    3.8903300000000    6.7347600000000    4.9083200000000    0.000075   -0.000439    0.001981 
 O   -0.0029900000000    2.2283300000000    3.3318600000000   -0.002374   -0.000884   -0.000941 
 O   -1.8528700000000    5.6792700000000    3.4569700000000   -0.001536    0.001527   -0.001228 
 O   -3.9012000000000    8.9748000000000    3.3698900000000    0.002284   -0.000932   -0.001815 
 O    3.8875000000000    2.2878500000000    3.3138400000000   -0.000249    0.001444    0.002866 
 O    1.9358900000000    5.6012900000000    3.3208200000000   -0.002131    0.002174    0.000434 
 O   -0.0277500000000    8.8501500000000    3.4522800000000   -0.000779   -0.000999   -0.000130 
 O    7.7447200000000    2.2460300000000    3.3511600000000    0.003001   -0.001096   -0.000381 
 O    5.7792200000000    5.5655400000000    3.3145600000000   -0.000563    0.001503    0.002979 
 O    3.8873300000000    8.9676600000000    3.3304100000000   -0.000704    0.001685    0.000443 
 O    1.9387300000000    1.1202000000000    1.8409000000000    0.010726    0.001646    0.095020 
 O   -0.0163500000000    4.4680300000000    1.8564100000000    0.011090    0.007431    0.096310 
 O   -1.9736500000000    7.8572400000000    1.8264800000000   -0.000130    0.005033    0.126984 
 O    5.8146100000000    1.0711300000000    1.8901700000000   -0.005039   -0.007107    0.107303 
 O    3.8613700000000    4.4886900000000    1.8175900000000    0.017320   -0.009658    0.086608 
 O    1.9406100000000    7.8586400000000    1.8555300000000    0.000165   -0.013258    0.096515 
 O    9.6916400000000    1.1241500000000    1.8463400000000   -0.000301    0.000299    0.105175 
 O    7.8006700000000    4.5078600000000    1.8936800000000    0.004055    0.007716    0.103025 
 O    5.8201200000000    7.8399600000000    1.8436500000000    0.000729   -0.012390    0.089347 
 O   11.6312500000000    0.0032000000000    0.2619600000000   -0.011009    0.004973    0.065201 
 O    9.6883600000000    3.3632500000000    0.2734800000000   -0.012105   -0.012724    0.087221 
 O    7.7485100000000    6.7117600000000    0.2682100000000   -0.004843   -0.022127    0.071529 
 O    3.8801500000000    0.0112900000000    0.2681000000000    0.016101    0.013511    0.070247 
 O    1.9283700000000    3.3579100000000    0.2634800000000   -0.016208   -0.000811    0.079713 
 O   -0.0018800000000    6.7199800000000    0.2946000000000   -0.037100    0.019934    0.057280 
 O    7.7510900000000    0.0066500000000    0.2734500000000    0.006188    0.017881    0.086887 
 O    5.8376700000000    3.3499500000000    0.2980000000000    0.039040   -0.020756    0.115821 
 O    3.8761800000000    6.7298200000000    0.2647300000000   -0.005558    0.015599    0.080999 
 O   -1.5371300000000    7.6761400000000    6.3986100000000   -0.002023    0.001841    0.002774 
 H   -0.1785100000000    6.8612700000000    5.9960500000000   -0.008267   -0.001183    0.003424 
 H   -1.7463300000000    8.1646800000000    7.2114100000000    0.005625   -0.005340    0.002140 
 C   -1.5569100000000    8.1439800000000   11.6534300000000    0.001539   -0.004024   -1.083398 
 O   -1.5569100000000    8.1439800000000   10.5000000000000   -0.003592    0.006593    1.051527 
59
Iteration: 12   FORCE:    ...   F0:  -468.16464778  ENERGY(s->0):  -468.16464778
Ce    1.9251300000000    1.1413300000000    4.1432800000000    0.000893    0.000428   -0.000849 
Ce    0.0167200000000    4.4074100000000    4.1590800000000   -0.001131    0.004249   -0.001827 
Ce   -2.0673400000000    7.9120100000000    4.2553600000000    0.007001   -0.005659    0.000927 
Ce    5.8094000000000    1.1251600000000    4.1629800000000   -0.003929   -0.003339    0.000443 
Ce    3.8785100000000    4.4793300000000    4.1243300000000    0.000963    0.000572    0.006127 
Ce    2.0110200000000    7.8613600000000    4.1559800000000   -0.006595   -0.002292    0.000361 
Ce    9.6983900000000    1.1194000000000    4.1577000000000    0.000357    0.001287    0.003144 
Ce    7.7485800000000    4.4831700000000    4.1647500000000    0.000417    0.004462    0.000165 
Ce    5.7936900000000    7.8407900000000    4.1433200000000    0.002047   -0.003948   -0.000246 
Ce   -0.0076600000000    2.2417100000000    1.0356000000000   -0.010809    0.011299   -0.259594 
Ce   -1.9332500000000    5.6215600000000    1.0900300000000   -0.039870    0.018263   -0.014851 
Ce   -3.8793900000000    8.9592200000000    1.0463300000000    0.021087   -0.017165   -0.200705 
Ce    3.8743500000000    2.2404100000000    1.0469100000000   -0.044187   -0.070330   -0.222644 
Ce    1.9341500000000    5.6020000000000    1.0518100000000    0.025625   -0.015789   -0.214590 
Ce   -0.0167600000000    8.9427800000000    1.0892500000000   -0.033787    0.022702   -0.019796 
Ce    7.7652500000000    2.2359100000000    1.0603000000000    0.045270   -0.023317   -0.167953 
Ce    5.8162000000000    5.6029100000000    1.0478700000000    0.044330    0.075299   -0.222119 
Ce    3.8740500000000    8.9648500000000    1.0347300000000   -0.011882    0.003348   -0.258228 
 O   11.6068500000000    0.0168500000000    4.9322400000000    0.001245   -0.000478   -0.000665 
 O    9.7080500000000    3.3412800000000    4.9149300000000    0.000462   -0.000343    0.000115 
 O    7.6226500000000    6.6908800000000    4.8751100000000   -0.001873    0.002482   -0.001458 
 O    3.8317500000000    0.1357300000000    4.8879900000000   -0.001286    0.001343   -0.002254 
 O    1.9326800000000    3.3429400000000    4.9102300000000   -0.001590   -0.001567   -0.000907 
 O    0.4298300000000    6.4706300000000    5.2941600000000    0.001682   -0.004066   -0.004615 
 O    1.9597000000000   10.0771900000000    4.9169000000000    0.000868    0.000590    0.000108 
 O    5.8202400000000    3.3569200000000    4.9300400000000    0.001877   -0.000796   -0.000855 
 O    3.8904200000000    6.7347400000000    4.9086500000000   -0.000119    0.003382    0.000046 
 O   -0.0033200000000    2.2280900000000    3.3318000000000    0.001437    0.000492   -0.000207 
 O   -1.8532100000000    5.6793500000000    3.4567800000000   -0.000595   -0.001720   -0.001047 
 O   -3.9010400000000    8.9747800000000    3.3696600000000   -0.003332    0.002771    0.000162 
 O    3.8874600000000    2.2880100000000    3.3142500000000    0.000302    0.000161   -0.002974 
 O    1.9356700000000    5.6015600000000    3.3208500000000    0.000402    0.000162   -0.000400 
 O   -0.0277300000000    8.8501300000000    3.4522300000000    0.001753    0.001128   -0.000889 
 O    7.7451200000000    2.2458500000000    3.3511600000000   -0.000771    0.000129   -0.000905 
 O    5.7791000000000    5.5657800000000    3.3150000000000   -0.000947    0.000618   -0.003042 
 O    3.8872800000000    8.9679500000000    3.3305100000000    0.000335   -0.000800   -0.001108 
 O    1.9387300000000    1.1202000000000    1.8409000000000    0.011379    0.002593    0.096567 
 O   -0.0163500000000    4.4680300000000    1.8564100000000    0.012039    0.005985    0.096906 
 O   -1.9736500000000    7.8572400000000    1.8264800000000   -0.000785    0.006356    0.125083 
 O    5.8146100000000    1.0711300000000    1.8901700000000   -0.005246   -0.004913    0.108119 
 O    3.8613700000000    4.4886900000000    1.8175900000000    0.017570   -0.009835    0.085099 
 O    1.9406100000000    7.8586400000000    1.8555300000000    0.002446   -0.012349    0.096062 
 O    9.6916400000000    1.1241500000000    1.8463400000000   -0.000437   -0.000559    0.103127 
 O    7.8006700000000    4.5078600000000    1.8936800000000    0.001222    0.006168    0.103008 
 O    5.8201200000000    7.8399600000000    1.8436500000000   -0.000286   -0.011993    0.090314 
 O   11.6312500000000    0.0032000000000    0.2619600000000   -0.011412    0.004943    0.065601 
 O    9.6883600000000    3.3632500000000    0.2734800000000   -0.012382   -0.013726    0.087429 
 O    7.7485100000000    6.7117600000000    0.2682100000000   -0.006196   -0.022166    0.071708 
 O    3.8801500000000    0.0112900000000    0.2681000000000    0.015882    0.014787    0.070611 
 O    1.9283700000000    3.3579100000000    0.2634800000000   -0.015332   -0.001063    0.080035 
 O   -0.0018800000000    6.7199800000000    0.2946000000000   -0.036287    0.019886    0.057253 
 O    7.7510900000000    0.0066500000000    0.2734500000000    0.006856    0.018278    0.087155 
 O    5.8376700000000    3.3499500000000    0.2980000000000    0.038431   -0.020603    0.116220 
 O    3.8761800000000    6.7298200000000    0.2647300000000   -0.005065    0.015483    0.081317 
 O   -1.5375400000000    7.6763300000000    6.3985500000000   -0.004126    0.002500    0.000650 
 H   -0.1795200000000    6.8608200000000    5.9959200000000   -0.007189   -0.000405    0.001158 
 H   -1.7452000000000    8.1636000000000    7.2125000000000    0.005796   -0.006095    0.005178 
 C   -1.5569100000000    8.1439800000000   11.5034300000000    0.001817   -0.004678   -1.082134 
 O   -1.5569100000000    8.1439800000000   10.3500000000000   -0.004342    0.007846    1.046661 
59
Iteration: 14   FORCE:    ...   F0:  -468.17020183  ENERGY(s->0):  -468.17020183
Ce    1.9251300000000    1.1416600000000    4.1428500000000    0.001203   -0.000439    0.003212 
Ce    0.0163000000000    4.4075100000000    4.1585900000000    0.001264    0.002738    0.005411 
Ce   -2.0672400000000    7.9121100000000    4.2552100000000   -0.000924   -0.000786    0.004159 
Ce    5.8093800000000    1.1250400000000    4.1628400000000    0.000233    0.000610    0.001448 
Ce    3.8786100000000    4.4794600000000    4.1248800000000   -0.001094    0.000223   -0.003304 
Ce    2.0102900000000    7.8612000000000    4.1559600000000    0.000914   -0.001212    0.003264 
Ce    9.6985500000000    1.1193600000000    4.1577600000000   -0.002179    0.001794    0.001211 
Ce    7.7486200000000    4.4836200000000    4.1645000000000    0.000559   -0.000955    0.002455 
Ce    5.7934300000000    7.8408700000000    4.1430200000000    0.001960   -0.002287    0.003531 
Ce   -0.0076600000000    2.2417100000000    1.0356000000000   -0.010329    0.011774   -0.261346 
Ce   -1.9332500000000    5.6215600000000    1.0900300000000   -0.040871    0.017277   -0.016726 
Ce   -3.8793900000000    8.9592200000000    1.0463300000000    0.019681   -0.016615   -0.199731 
Ce    3.8743500000000    2.2404100000000    1.0469100000000   -0.042951   -0.067216   -0.225574 
Ce    1.9341500000000    5.6020000000000    1.0518100000000    0.028539   -0.016429   -0.212942 
Ce   -0.0167600000000    8.9427800000000    1.0892500000000   -0.032250    0.023752   -0.021906 
Ce    7.7652500000000    2.2359100000000    1.0603000000000    0.043579   -0.022714   -0.167771 
Ce    5.8162000000000    5.6029100000000    1.0478700000000    0.041748    0.073780   -0.225571 
Ce    3.8740500000000    8.9648500000000    1.0347300000000   -0.012785    0.001941   -0.258616 
 O   11.6071300000000    0.0167500000000    4.9323200000000   -0.005301    0.003264   -0.002689 
 O    9.7081300000000    3.3416400000000    4.9152400000000   -0.001611   -0.005660   -0.001952 
 O    7.6223700000000    6.6912700000000    4.8749900000000   -0.000151   -0.000365   -0.003097 
 O    3.8318000000000    0.1360400000000    4.8873400000000    0.000749    0.000807   -0.003277 
 O    1.9322100000000    3.3429300000000    4.9100800000000    0.006000   -0.001270    0.000057 
 O    0.4287900000000    6.4699700000000    5.2943200000000   -0.002053    0.000664   -0.002818 
 O    1.9596100000000   10.0772000000000    4.9172500000000    0.002774    0.002023   -0.001761 
 O    5.8208500000000    3.3568800000000    4.9299300000000   -0.004240    0.002327    0.000506 
 O    3.8900900000000    6.7354400000000    4.9089600000000    0.001052   -0.003545   -0.000024 
 O   -0.0029700000000    2.2286700000000    3.3317400000000   -0.004645   -0.007088   -0.001787 
 O   -1.8533900000000    5.6788500000000    3.4568200000000   -0.002880    0.004928   -0.003286 
 O   -3.9014700000000    8.9751600000000    3.3699600000000    0.002563   -0.001149   -0.004604 
 O    3.8876900000000    2.2883600000000    3.3134600000000   -0.001042    0.001457    0.006306 
 O    1.9356800000000    5.6016500000000    3.3210800000000    0.001851    0.000454   -0.001581 
 O   -0.0272500000000    8.8502100000000    3.4523600000000   -0.003677   -0.000896   -0.001427 
 O    7.7448200000000    2.2461000000000    3.3510100000000    0.004288   -0.002792   -0.000013 
 O    5.7788100000000    5.5658200000000    3.3143300000000   -0.001226    0.000405    0.005753 
 O    3.8869500000000    8.9674100000000    3.3303200000000    0.001101    0.006319    0.000443 
 O    1.9387300000000    1.1202000000000    1.8409000000000    0.010550    0.002319    0.094594 
 O   -0.0163500000000    4.4680300000000    1.8564100000000    0.011503    0.007801    0.093185 
 O   -1.9736500000000    7.8572400000000    1.8264800000000   -0.000466    0.006535    0.127796 
 O    5.8146100000000    1.0711300000000    1.8901700000000   -0.004850   -0.007082    0.106971 
 O    3.8613700000000    4.4886900000000    1.8175900000000    0.015629   -0.008201    0.086678 
 O    1.9406100000000    7.8586400000000    1.8555300000000   -0.000051   -0.013132    0.094600 
 O    9.6916400000000    1.1241500000000    1.8463400000000    0.000705   -0.000515    0.105758 
 O    7.8006700000000    4.5078600000000    1.8936800000000    0.001829    0.007339    0.101407 
 O    5.8201200000000    7.8399600000000    1.8436500000000    0.000457   -0.010741    0.088287 
 O   11.6312500000000    0.0032000000000    0.2619600000000   -0.011036    0.005117    0.065715 
 O    9.6883600000000    3.3632500000000    0.2734800000000   -0.012121   -0.013427    0.087512 
 O    7.7485100000000    6.7117600000000    0.2682100000000   -0.005174   -0.021505    0.071933 
 O    3.8801500000000    0.0112900000000    0.2681000000000    0.015766    0.013367    0.070873 
 O    1.9283700000000    3.3579100000000    0.2634800000000   -0.016638   -0.000906    0.080107 
 O   -0.0018800000000    6.7199800000000    0.2946000000000   -0.036948    0.020160    0.057554 
 O    7.7510900000000    0.0066500000000    0.2734500000000    0.006437    0.018076    0.087141 
 O    5.8376700000000    3.3499500000000    0.2980000000000    0.039222   -0.020885    0.116305 
 O    3.8761800000000    6.7298200000000    0.2647300000000   -0.005678    0.016011    0.081210 
 O   -1.5388300000000    7.6772300000000    6.3980500000000    0.002282   -0.001794    0.002870 
 H   -0.1824700000000    6.8599600000000    5.9949900000000   -0.001761   -0.000849   -0.002154 
 H   -1.7410700000000    8.1588700000000    7.2167200000000    0.003667   -0.006937    0.003114 
 C   -1.5569100000000    8.1439800000000   11.3534300000000    0.002050   -0.005347   -1.080019 
 O   -1.5569100000000    8.1439800000000   10.2000000000000   -0.005222    0.009476    1.042611 
59
Iteration: 25   FORCE:    ...   F0:  -468.17609363  ENERGY(s->0):  -468.17609363
Ce    1.9250600000000    1.1421800000000    4.1428900000000    0.000151   -0.000033    0.000373 
Ce    0.0159900000000    4.4081800000000    4.1589000000000    0.001150   -0.002452   -0.000807 
Ce   -2.0677200000000    7.9126200000000    4.2561300000000   -0.001741    0.001201   -0.001557 
Ce    5.8091200000000    1.1253000000000    4.1631500000000    0.001299    0.000641   -0.000670 
Ce    3.8782300000000    4.4797900000000    4.1257700000000    0.001155   -0.000859   -0.004303 
Ce    2.0092000000000    7.8604600000000    4.1565500000000    0.003389    0.001643   -0.001582 
Ce    9.6979700000000    1.1193000000000    4.1581400000000   -0.000231    0.000181   -0.001677 
Ce    7.7484900000000    4.4841300000000    4.1649600000000   -0.000667   -0.002437   -0.001277 
Ce    5.7930100000000    7.8407600000000    4.1434400000000   -0.000617    0.000051   -0.000485 
Ce   -0.0076600000000    2.2417100000000    1.0356000000000   -0.012300    0.011155   -0.259151 
Ce   -1.9332500000000    5.6215600000000    1.0900300000000   -0.041227    0.021287   -0.016545 
Ce   -3.8793900000000    8.9592200000000    1.0463300000000    0.021279   -0.018623   -0.200357 
Ce    3.8743500000000    2.2404100000000    1.0469100000000   -0.044172   -0.066243   -0.220730 
Ce    1.9341500000000    5.6020000000000    1.0518100000000    0.027727   -0.015310   -0.215302 
Ce   -0.0167600000000    8.9427800000000    1.0892500000000   -0.035125    0.019751   -0.020479 
Ce    7.7652500000000    2.2359100000000    1.0603000000000    0.045557   -0.023477   -0.166772 
Ce    5.8162000000000    5.6029100000000    1.0478700000000    0.041170    0.075490   -0.219498 
Ce    3.8740500000000    8.9648500000000    1.0347300000000   -0.013759    0.002382   -0.253094 
 O   11.6058100000000    0.0170500000000    4.9321900000000    0.002949   -0.000715    0.002018 
 O    9.7076600000000    3.3421400000000    4.9152200000000   -0.001891   -0.001190    0.000052 
 O    7.6224900000000    6.6917800000000    4.8756000000000    0.001766    0.003070    0.004632 
 O    3.8319000000000    0.1362300000000    4.8859500000000   -0.001769   -0.004592    0.004744 
 O    1.9329200000000    3.3433000000000    4.9106800000000   -0.002740   -0.000797   -0.001583 
 O    0.4273500000000    6.4686400000000    5.2920700000000    0.001144    0.003799    0.004579 
 O    1.9581800000000   10.0767700000000    4.9173100000000    0.001687    0.003254   -0.000043 
 O    5.8199200000000    3.3577800000000    4.9307900000000    0.002839   -0.002015   -0.002416 
 O    3.8892500000000    6.7344200000000    4.9098200000000    0.000848    0.001857   -0.000585 
 O   -0.0035300000000    2.2280000000000    3.3319700000000    0.001518    0.002621   -0.000762 
 O   -1.8542300000000    5.6803000000000    3.4567200000000   -0.000778   -0.005980   -0.000623 
 O   -3.9015300000000    8.9749600000000    3.3695500000000   -0.001775    0.001479    0.004731 
 O    3.8872100000000    2.2884600000000    3.3145000000000    0.001980    0.002593   -0.005734 
 O    1.9351000000000    5.6020300000000    3.3205500000000    0.007616   -0.004486    0.001337 
 O   -0.0286200000000    8.8489700000000    3.4526700000000    0.003936    0.004681   -0.001688 
 O    7.7449700000000    2.2458200000000    3.3513100000000   -0.002382    0.002211    0.001692 
 O    5.7791400000000    5.5668900000000    3.3157400000000   -0.003646   -0.004665   -0.006834 
 O    3.8866000000000    8.9676800000000    3.3310900000000   -0.001161   -0.002144   -0.003142 
 O    1.9387300000000    1.1202000000000    1.8409000000000    0.011176    0.004543    0.095818 
 O   -0.0163500000000    4.4680300000000    1.8564100000000    0.008188    0.006562    0.096053 
 O   -1.9736500000000    7.8572400000000    1.8264800000000   -0.002369    0.008293    0.126040 
 O    5.8146100000000    1.0711300000000    1.8901700000000   -0.006099   -0.006735    0.110690 
 O    3.8613700000000    4.4886900000000    1.8175900000000    0.019416   -0.007870    0.090077 
 O    1.9406100000000    7.8586400000000    1.8555300000000   -0.000793   -0.010411    0.096822 
 O    9.6916400000000    1.1241500000000    1.8463400000000   -0.001156   -0.001345    0.105248 
 O    7.8006700000000    4.5078600000000    1.8936800000000   -0.001286    0.006396    0.104928 
 O    5.8201200000000    7.8399600000000    1.8436500000000   -0.002910   -0.011116    0.090192 
 O   11.6312500000000    0.0032000000000    0.2619600000000   -0.011596    0.005179    0.065026 
 O    9.6883600000000    3.3632500000000    0.2734800000000   -0.012611   -0.013756    0.086911 
 O    7.7485100000000    6.7117600000000    0.2682100000000   -0.007009   -0.022791    0.070869 
 O    3.8801500000000    0.0112900000000    0.2681000000000    0.016087    0.015144    0.069942 
 O    1.9283700000000    3.3579100000000    0.2634800000000   -0.015993   -0.002247    0.079536 
 O   -0.0018800000000    6.7199800000000    0.2946000000000   -0.037147    0.020303    0.056468 
 O    7.7510900000000    0.0066500000000    0.2734500000000    0.006365    0.018376    0.086425 
 O    5.8376700000000    3.3499500000000    0.2980000000000    0.038727   -0.020476    0.115774 
 O    3.8761800000000    6.7298200000000    0.2647300000000   -0.004032    0.016089    0.080487 
 O   -1.5339100000000    7.6729200000000    6.3982800000000   -0.000986   -0.002511    0.000248 
 H   -0.1890200000000    6.8598100000000    5.9897700000000    0.007753   -0.004700   -0.001606 
 H   -1.7262900000000    8.1325800000000    7.2317500000000   -0.003023   -0.005039   -0.002612 
 C   -1.5569100000000    8.1439800000000   11.2034300000000    0.002314   -0.005937   -1.076478 
 O   -1.5569100000000    8.1439800000000   10.0500000000000   -0.006194    0.010720    1.036682 
59
Iteration: 3   FORCE:    ...   F0:  -468.18181879  ENERGY(s->0):  -468.18181879
Ce    1.9250300000000    1.1421300000000    4.1428400000000   -0.000660   -0.000115    0.000638 
Ce    0.0160300000000    4.4081600000000    4.1588500000000    0.000419   -0.000837    0.000390 
Ce   -2.0678500000000    7.9127200000000    4.2564100000000   -0.002760    0.001487    0.000787 
Ce    5.8091600000000    1.1252800000000    4.1630600000000    0.001377    0.000297   -0.000142 
Ce    3.8782300000000    4.4797600000000    4.1253800000000    0.000508   -0.000420   -0.003081 
Ce    2.0092200000000    7.8604100000000    4.1564200000000    0.001263   -0.000087   -0.000243 
Ce    9.6979400000000    1.1192900000000    4.1579300000000   -0.000796    0.000549   -0.000622 
Ce    7.7485300000000    4.4840800000000    4.1648300000000    0.000386   -0.001441   -0.000245 
Ce    5.7930000000000    7.8408400000000    4.1433500000000   -0.000393    0.000489    0.000305 
Ce   -0.0076600000000    2.2417100000000    1.0356000000000   -0.011825    0.011147   -0.259283 
Ce   -1.9332500000000    5.6215600000000    1.0900300000000   -0.041266    0.021728   -0.015417 
Ce   -3.8793900000000    8.9592200000000    1.0463300000000    0.022031   -0.019005   -0.199098 
Ce    3.8743500000000    2.2404100000000    1.0469100000000   -0.043757   -0.066775   -0.221496 
Ce    1.9341500000000    5.6020000000000    1.0518100000000    0.027872   -0.015464   -0.214993 
Ce   -0.0167600000000    8.9427800000000    1.0892500000000   -0.035520    0.019749   -0.019612 
Ce    7.7652500000000    2.2359100000000    1.0603000000000    0.045212   -0.023336   -0.166667 
Ce    5.8162000000000    5.6029100000000    1.0478700000000    0.041751    0.075284   -0.220311 
Ce    3.8740500000000    8.9648500000000    1.0347300000000   -0.013548    0.002126   -0.253830 
 O   11.6059000000000    0.0170400000000    4.9322900000000    0.001778   -0.000308    0.000935 
 O    9.7076000000000    3.3420800000000    4.9152500000000   -0.001062   -0.002290    0.000065 
 O    7.6225000000000    6.6918500000000    4.8757500000000   -0.000209    0.002107    0.002552 
 O    3.8318500000000    0.1361300000000    4.8861200000000   -0.001800   -0.002076    0.003305 
 O    1.9328500000000    3.3432700000000    4.9106700000000   -0.001986   -0.001263   -0.001409 
 O    0.4274700000000    6.4687400000000    5.2922500000000    0.008878   -0.001843   -0.002704 
 O    1.9582700000000   10.0768800000000    4.9173500000000    0.002616    0.002597   -0.000253 
 O    5.8200100000000    3.3577200000000    4.9307400000000    0.002311   -0.001929   -0.002179 
 O    3.8893000000000    6.7344700000000    4.9098300000000    0.000964    0.001934   -0.001124 
 O   -0.0034900000000    2.2280700000000    3.3319500000000    0.000610    0.000955   -0.001153 
 O   -1.8542400000000    5.6800700000000    3.4567100000000   -0.000505   -0.004855   -0.000762 
 O   -3.9016000000000    8.9750100000000    3.3696800000000   -0.002071    0.001611    0.002569 
 O    3.8872900000000    2.2885500000000    3.3143400000000    0.001279    0.000902   -0.004376 
 O    1.9353600000000    5.6018700000000    3.3206200000000    0.004927   -0.002822   -0.000339 
 O   -0.0284600000000    8.8491400000000    3.4526200000000    0.003480    0.003921   -0.001350 
 O    7.7449100000000    2.2458900000000    3.3513800000000   -0.000530    0.000878   -0.000413 
 O    5.7790200000000    5.5667100000000    3.3155400000000   -0.001826   -0.002926   -0.005468 
 O    3.8865700000000    8.9676300000000    3.3310000000000   -0.000190   -0.000566   -0.002770 
 O    1.9387300000000    1.1202000000000    1.8409000000000    0.011452    0.004294    0.095719 
 O   -0.0163500000000    4.4680300000000    1.8564100000000    0.009250    0.006938    0.095851 
 O   -1.9736500000000    7.8572400000000    1.8264800000000   -0.002469    0.008372    0.125722 
 O    5.8146100000000    1.0711300000000    1.8901700000000   -0.005965   -0.006524    0.109831 
 O    3.8613700000000    4.4886900000000    1.8175900000000    0.019214   -0.008030    0.088063 
 O    1.9406100000000    7.8586400000000    1.8555300000000   -0.000708   -0.011464    0.096311 
 O    9.6916400000000    1.1241500000000    1.8463400000000   -0.001122   -0.001420    0.104832 
 O    7.8006700000000    4.5078600000000    1.8936800000000   -0.001411    0.006294    0.103942 
 O    5.8201200000000    7.8399600000000    1.8436500000000   -0.002495   -0.011204    0.089849 
 O   11.6312500000000    0.0032000000000    0.2619600000000   -0.011697    0.005187    0.065449 
 O    9.6883600000000    3.3632500000000    0.2734800000000   -0.012579   -0.014374    0.087125 
 O    7.7485100000000    6.7117600000000    0.2682100000000   -0.007397   -0.022931    0.071436 
 O    3.8801500000000    0.0112900000000    0.2681000000000    0.016105    0.015574    0.070437 
 O    1.9283700000000    3.3579100000000    0.2634800000000   -0.015680   -0.002044    0.079771 
 O   -0.0018800000000    6.7199800000000    0.2946000000000   -0.036313    0.019930    0.057094 
 O    7.7510900000000    0.0066500000000    0.2734500000000    0.006892    0.018565    0.086723 
 O    5.8376700000000    3.3499500000000    0.2980000000000    0.038841   -0.020550    0.115938 
 O    3.8761800000000    6.7298200000000    0.2647300000000   -0.004090    0.015805    0.080737 
 O   -1.5340400000000    7.6729300000000    6.3979700000000   -0.003236    0.000852   -0.002848 
 H   -0.1888100000000    6.8596800000000    5.9897400000000    0.001030   -0.000261    0.004479 
 H   -1.7262800000000    8.1322300000000    7.2316800000000   -0.000126   -0.009223   -0.002323 
 C   -1.5569100000000    8.1439800000000   11.0534300000000    0.003025   -0.007027   -1.072679 
 O   -1.5569100000000    8.1439800000000    9.9000000000000   -0.007480    0.013837    1.036334 
59
Iteration: 48   FORCE:    ...   F0:  -468.18689956  ENERGY(s->0):  -468.18689956
Ce    1.9247700000000    1.1422300000000    4.1430600000000   -0.000356   -0.000434   -0.000568 
Ce    0.0176400000000    4.4079300000000    4.1587900000000   -0.001024   -0.000420   -0.000291 
Ce   -2.0699300000000    7.9138200000000    4.2534000000000    0.000653   -0.000542   -0.001413 
Ce    5.8098200000000    1.1248500000000    4.1630700000000   -0.000293   -0.000691   -0.001156 
Ce    3.8790100000000    4.4792700000000    4.1242200000000   -0.000373    0.000159    0.000240 
Ce    2.0106700000000    7.8598700000000    4.1563000000000   -0.000276    0.000452   -0.000516 
Ce    9.6979200000000    1.1197000000000    4.1578300000000    0.000635   -0.000345   -0.000613 
Ce    7.7491100000000    4.4835900000000    4.1647200000000    0.000587    0.000675   -0.000481 
Ce    5.7926400000000    7.8409700000000    4.1432700000000    0.000120    0.000447   -0.000148 