59
Lattice="11.6375999451 0.0 0.0 -5.8188004494 10.0784580174 0.0 0.0 0.0 13.0" Properties=species:S:1:pos:R:3 Iteration:=T 130=T FORCE:=T ...=T F0:=T -468.15957283=T ENERGY(s->0):=T pbc="T T T"
Ce       5.75052856       1.87796087       4.14322000
Ce       1.84027811       8.68998889       4.15894000
Ce       3.92363811       5.18632889       4.25538000
Ce       1.86666856       1.89445087       4.16302000
Ce      -2.02162189       8.61839889       4.12487000
Ce      -0.15354189       5.23663889       4.15600000
Ce       9.61495851       1.89979087       4.15798000
Ce       5.74592806       8.61426889       4.16476000
Ce       7.70067806       5.25734889       4.14329000
Ce       7.68339856       0.77760087       1.03560000
Ce       3.79018811       7.47620889       1.09003000
Ce       5.73632811       4.13854889       1.04633000
Ce       3.80138856       0.77890087       1.04691000
Ce      -0.07721189       7.49576889       1.05181000
Ce       1.87369811       4.15498889       1.08925000
Ce      -0.08951144       0.78340087       1.06030000
Ce      -3.95926189       7.49485889       1.04787000
Ce      -2.01711189       4.13291889       1.03473000
O        7.70617851       3.00269087       4.93261000
O        9.60520856      -0.32208913       4.91492000
O        5.87182806       6.40681889       4.87542000
O        3.84425856       2.88373087       4.88848000
O        5.74339856      -0.32373913       4.91015000
O        1.42654811       6.62685889       5.29412000
O       -0.10263189       3.02067889       4.91688000
O        1.85537856      -0.33735913       4.92990000
O       -2.03339189       6.36300889       4.90832000
O        7.67872856       0.79098087       3.33186000
O        3.70980811       7.41849889       3.45697000
O        5.75813811       4.12296889       3.36989000
O        3.78823856       0.73146087       3.31384000
O       -0.07895189       7.49647889       3.32082000
O        1.88468811       4.24761889       3.45228000
O       -0.06898144       0.77328087       3.35116000
O       -3.92228189       7.53222889       3.31456000
O       -2.03039189       4.13010889       3.33041000
O        5.73700856       1.89911087       1.84090000
O        1.87328811       8.62973889       1.85641000
O        3.83058811       5.24052889       1.82648000
O        1.86112856       1.94818087       1.89017000
O       -2.00443189       8.60907889       1.81759000
O       -0.08367189       5.23912889       1.85553000
O        9.62169851       1.89516087       1.84634000
O        5.69386806       8.58990889       1.89368000
O        7.67441806       5.25780889       1.84365000
O        7.68208851       3.01611087       0.26196000
O        9.62497851      -0.34393913       0.27348000
O        5.74602806       6.38600889       0.26821000
O        3.79558856       3.00802087       0.26810000
O        5.74736856      -0.33859913       0.26348000
O        1.85881811       6.37778889       0.29460000
O       -0.07535144       3.01266087       0.27345000
O        1.83806856      -0.33063913       0.29800000
O       -2.01924189       6.36794889       0.26473000
O        3.39406811       5.42162889       6.39861000
H        2.03544811       6.23649889       5.99605000
H        3.60326811       4.93308889       7.21141000
C        3.41384811       4.95378889      11.65343000
O        3.41384811       4.95378889      10.50000000
59
Lattice="11.6375999451 0.0 0.0 -5.8188004494 10.0784580174 0.0 0.0 0.0 13.0" Properties=species:S:1:pos:R:3 Iteration:=T 12=T FORCE:=T ...=T F0:=T -468.16464778=T ENERGY(s->0):=T pbc="T T T"
Ce       5.75059345       1.87804164       4.14328000
Ce       1.84020300       8.69041965       4.15908000
Ce       3.92426300       5.18581965       4.25536000
Ce       1.86632345       1.89421164       4.16298000
Ce      -2.02158700       8.61849965       4.12433000
Ce      -0.15409700       5.23646965       4.15598000
Ce       9.61493339       1.89997164       4.15770000
Ce       5.74594294       8.61465965       4.16475000
Ce       7.70083294       5.25703965       4.14332000
Ce       7.68338345       0.77766164       1.03560000
Ce       3.79017300       7.47626965       1.09003000
Ce       5.73631300       4.13860965       1.04633000
Ce       3.80137345       0.77896164       1.04691000
Ce      -0.07722700       7.49582965       1.05181000
Ce       1.87368300       4.15504965       1.08925000
Ce      -0.08952655       0.78346164       1.06030000
Ce      -3.95927700       7.49491965       1.04787000
Ce      -2.01712700       4.13297965       1.03473000
O        7.70647339       3.00252164       4.93224000
O        9.60527339      -0.32190836       4.91493000
O        5.87187294       6.40694965       4.87511000
O        3.84397345       2.88364164       4.88799000
O        5.74304345      -0.32356836       4.91023000
O        1.42709300       6.62719965       5.29416000
O       -0.10277700       3.02063965       4.91690000
O        1.85548345      -0.33754836       4.93004000
O       -2.03349700       6.36308965       4.90865000
O        7.67904345       0.79128164       3.33180000
O        3.71013300       7.41847965       3.45678000
O        5.75796300       4.12304965       3.36966000
O        3.78826345       0.73136164       3.31425000
O       -0.07874700       7.49626965       3.32085000
O        1.88465300       4.24769965       3.45223000
O       -0.06939655       0.77352164       3.35116000
O       -3.92217700       7.53204965       3.31500000
O       -2.03035700       4.12987965       3.33051000
O        5.73699345       1.89917164       1.84090000
O        1.87327300       8.62979965       1.85641000
O        3.83057300       5.24058965       1.82648000
O        1.86111345       1.94824164       1.89017000
O       -2.00444700       8.60913965       1.81759000
O       -0.08368700       5.23918965       1.85553000
O        9.62168339       1.89522164       1.84634000
O        5.69385294       8.58996965       1.89368000
O        7.67440294       5.25786965       1.84365000
O        7.68207339       3.01617164       0.26196000
O        9.62496339      -0.34387836       0.27348000
O        5.74601294       6.38606965       0.26821000
O        3.79557345       3.00808164       0.26810000
O        5.74735345      -0.33853836       0.26348000
O        1.85880300       6.37784965       0.29460000
O       -0.07536655       3.01272164       0.27345000
O        1.83805345      -0.33057836       0.29800000
O       -2.01925700       6.36800965       0.26473000
O        3.39446300       5.42149965       6.39855000
H        2.03644300       6.23700965       5.99592000
H        3.60212300       4.93422965       7.21250000
C        3.41383300       4.95384965      11.50343000
O        3.41383300       4.95384965      10.35000000
59
Lattice="11.6375999451 0.0 0.0 -5.8188004494 10.0784580174 0.0 0.0 0.0 13.0" Properties=species:S:1:pos:R:3 Iteration:=T 14=T FORCE:=T ...=T F0:=T -468.17020183=T ENERGY(s->0):=T pbc="T T T"
Ce       5.75047248       1.87781195       4.14285000
Ce       1.84050203       8.69041997       4.15859000
Ce       3.92404203       5.18581997       4.25521000
Ce       1.86622248       1.89443195       4.16284000
Ce      -2.02180797       8.61846997       4.12488000
Ce      -0.15348797       5.23672997       4.15596000
Ce       9.61465242       1.90011195       4.15776000
Ce       5.74578197       8.61430997       4.16450000
Ce       7.70097197       5.25705997       4.14302000
Ce       7.68326248       0.77776195       1.03560000
Ce       3.79005203       7.47636997       1.09003000
Ce       5.73619203       4.13870997       1.04633000
Ce       3.80125248       0.77906195       1.04691000
Ce      -0.07734797       7.49592997       1.05181000
Ce       1.87356203       4.15514997       1.08925000
Ce      -0.08964752       0.78356195       1.06030000
Ce      -3.95939797       7.49501997       1.04787000
Ce      -2.01724797       4.13307997       1.03473000
O        7.70607242       3.00272195       4.93232000
O        9.60507242      -0.32216805       4.91524000
O        5.87203197       6.40665997       4.87499000
O        3.84380248       2.88343195       4.88734000
O        5.74339248      -0.32345805       4.91008000
O        1.42801203       6.62795997       5.29432000
O       -0.10280797       3.02072997       4.91725000
O        1.85475248      -0.33740805       4.92993000
O       -2.03328797       6.36248997       4.90896000
O        7.67857248       0.79080195       3.33174000
O        3.71019203       7.41907997       3.45682000
O        5.75827203       4.12276997       3.36996000
O        3.78791248       0.73111195       3.31346000
O       -0.07887797       7.49627997       3.32108000
O        1.88405203       4.24771997       3.45236000
O       -0.06921752       0.77337195       3.35101000
O       -3.92200797       7.53210997       3.31433000
O       -2.03014797       4.13051997       3.33032000
O        5.73687248       1.89927195       1.84090000
O        1.87315203       8.62989997       1.85641000
O        3.83045203       5.24068997       1.82648000
O        1.86099248       1.94834195       1.89017000
O       -2.00456797       8.60923997       1.81759000
O       -0.08380797       5.23928997       1.85553000
O        9.62156242       1.89532195       1.84634000
O        5.69373197       8.59006997       1.89368000
O        7.67428197       5.25796997       1.84365000
O        7.68195242       3.01627195       0.26196000
O        9.62484242      -0.34377805       0.27348000
O        5.74589197       6.38616997       0.26821000
O        3.79545248       3.00818195       0.26810000
O        5.74723248      -0.33843805       0.26348000
O        1.85868203       6.37794997       0.29460000
O       -0.07548752       3.01282195       0.27345000
O        1.83793248      -0.33047805       0.29800000
O       -2.01937797       6.36810997       0.26473000
O        3.39563203       5.42069997       6.39805000
H        2.03927203       6.23796997       5.99499000
H        3.59787203       4.93905997       7.21672000
C        3.41371203       4.95394997      11.35343000
O        3.41371203       4.95394997      10.20000000
59
Lattice="11.6375999451 0.0 0.0 -5.8188004494 10.0784580174 0.0 0.0 0.0 13.0" Properties=species:S:1:pos:R:3 Iteration:=T 25=T FORCE:=T ...=T F0:=T -468.17609363=T ENERGY(s->0):=T pbc="T T T"
Ce       5.75017202       1.87740845       4.14289000
Ce       1.84044157       8.68986646       4.15890000
Ce       3.92415157       5.18542646       4.25613000
Ce       1.86611202       1.89428845       4.16315000
Ce      -2.02179843       8.61825646       4.12577000
Ce      -0.15276843       5.23758646       4.15655000
Ce       9.61486197       1.90028845       4.15814000
Ce       5.74554152       8.61391646       4.16496000
Ce       7.70102152       5.25728646       4.14344000
Ce       7.68289202       0.77787845       1.03560000
Ce       3.78968157       7.47648646       1.09003000
Ce       5.73582157       4.13882646       1.04633000
Ce       3.80088202       0.77917845       1.04691000
Ce      -0.07771843       7.49604646       1.05181000
Ce       1.87319157       4.15526646       1.08925000
Ce      -0.09001798       0.78367845       1.06030000
Ce      -3.95976843       7.49513646       1.04787000
Ce      -2.01761843       4.13319646       1.03473000
O        7.70702197       3.00253845       4.93219000
O        9.60517197      -0.32255155       4.91522000
O        5.87154152       6.40626646       4.87560000
O        3.84333202       2.88335845       4.88595000
O        5.74231202      -0.32371155       4.91068000
O        1.42908157       6.62940646       5.29207000
O       -0.10174843       3.02127646       4.91731000
O        1.85531202      -0.33819155       4.93079000
O       -2.03281843       6.36362646       4.90982000
O        7.67876202       0.79158845       3.33197000
O        3.71066157       7.41774646       3.45672000
O        5.75796157       4.12308646       3.36955000
O        3.78802202       0.73112845       3.31450000
O       -0.07866843       7.49601646       3.32055000
O        1.88505157       4.24907646       3.45267000
O       -0.06973798       0.77376845       3.35131000
O       -3.92270843       7.53115646       3.31574000
O       -2.03016843       4.13036646       3.33109000
O        5.73650202       1.89938845       1.84090000
O        1.87278157       8.63001646       1.85641000
O        3.83008157       5.24080646       1.82648000
O        1.86062202       1.94845845       1.89017000
O       -2.00493843       8.60935646       1.81759000
O       -0.08417843       5.23940646       1.85553000
O        9.62119197       1.89543845       1.84634000
O        5.69336152       8.59018646       1.89368000
O        7.67391152       5.25808646       1.84365000
O        7.68158197       3.01638845       0.26196000
O        9.62447197      -0.34366155       0.27348000
O        5.74552152       6.38628646       0.26821000
O        3.79508202       3.00829845       0.26810000
O        5.74686202      -0.33832155       0.26348000
O        1.85831157       6.37806646       0.29460000
O       -0.07585798       3.01293845       0.27345000
O        1.83756202      -0.33036155       0.29800000
O       -2.01974843       6.36822646       0.26473000
O        3.39034157       5.42512646       6.39828000
H        2.04545157       6.23823646       5.98977000
H        3.58272157       4.96546646       7.23175000
C        3.41334157       4.95406646      11.20343000
O        3.41334157       4.95406646      10.05000000
59
Lattice="11.6375999451 0.0 0.0 -5.8188004494 10.0784580174 0.0 0.0 0.0 13.0" Properties=species:S:1:pos:R:3 Iteration:=T 3=T FORCE:=T ...=T F0:=T -468.18181879=T ENERGY(s->0):=T pbc="T T T"
Ce       5.75020078       1.87745277       4.14284000
Ce       1.84040033       8.68988078       4.15885000
Ce       3.92428033       5.18532078       4.25641000
Ce       1.86607078       1.89430277       4.16306000
Ce      -2.02179967       8.61828078       4.12538000
Ce      -0.15278967       5.23763078       4.15642000
Ce       9.61489073       1.90029277       4.15793000
Ce       5.74550028       8.61396078       4.16483000
Ce       7.70103028       5.25720078       4.14335000
Ce       7.68289078       0.77787277       1.03560000
Ce       3.78968033       7.47648078       1.09003000
Ce       5.73582033       4.13882078       1.04633000
Ce       3.80088078       0.77917277       1.04691000
Ce      -0.07771967       7.49604078       1.05181000
Ce       1.87319033       4.15526078       1.08925000
Ce      -0.09001922       0.78367277       1.06030000
Ce      -3.95976967       7.49513078       1.04787000
Ce      -2.01761967       4.13319078       1.03473000
O        7.70693073       3.00254277       4.93229000
O        9.60523073      -0.32249723       4.91525000
O        5.87153028       6.40619078       4.87575000
O        3.84338078       2.88345277       4.88612000
O        5.74238078      -0.32368723       4.91067000
O        1.42896033       6.62930078       5.29225000
O       -0.10183967       3.02116078       4.91735000
O        1.85522078      -0.33813723       4.93074000
O       -2.03286967       6.36357078       4.90983000
O        7.67872078       0.79151277       3.33195000
O        3.71067033       7.41797078       3.45671000
O        5.75803033       4.12303078       3.36968000
O        3.78794078       0.73103277       3.31434000
O       -0.07892967       7.49617078       3.32062000
O        1.88489033       4.24890078       3.45262000
O       -0.06967922       0.77369277       3.35138000
O       -3.92258967       7.53133078       3.31554000
O       -2.03013967       4.13041078       3.33100000
O        5.73650078       1.89938277       1.84090000
O        1.87278033       8.63001078       1.85641000
O        3.83008033       5.24080078       1.82648000
O        1.86062078       1.94845277       1.89017000
O       -2.00493967       8.60935078       1.81759000
O       -0.08417967       5.23940078       1.85553000
O        9.62119073       1.89543277       1.84634000
O        5.69336028       8.59018078       1.89368000
O        7.67391028       5.25808078       1.84365000
O        7.68158073       3.01638277       0.26196000
O        9.62447073      -0.34366723       0.27348000
O        5.74552028       6.38628078       0.26821000
O        3.79508078       3.00829277       0.26810000
O        5.74686078      -0.33832723       0.26348000
O        1.85831033       6.37806078       0.29460000
O       -0.07585922       3.01293277       0.27345000
O        1.83756078      -0.33036723       0.29800000
O       -2.01974967       6.36822078       0.26473000
O        3.39047033       5.42511078       6.39797000
H        2.04524033       6.23836078       5.98974000
H        3.58271033       4.96581078       7.23168000
C        3.41334033       4.95406078      11.05343000
O        3.41334033       4.95406078       9.90000000
59
Lattice="11.6375999451 0.0 0.0 -5.8188004494 10.0784580174 0.0 0.0 0.0 13.0" Properties=species:S:1:pos:R:3 Iteration:=T 48=T FORCE:=T ...=T F0:=T -468.18689956=T ENERGY(s->0):=T pbc="T T T"
Ce       5.75099170       1.87702037       4.14306000
Ce       1.83932125       8.68977839       4.15879000
Ce       3.92689125       5.18388839       4.25340000
Ce       1.86594170       1.89440037       4.16307000
Ce      -2.02204875       8.61843839       4.12422000
Ce      -0.15370875       5.23783839       4.15630000
Ce       9.61544165       1.89955037       4.15783000
Ce       5.74545120       8.61411839       4.16472000
Ce       7.70192120       5.25673839       4.14327000
Ce       7.68342170       0.77754037       1.03560000
Ce       3.79021125       7.47614839       1.09003000
Ce       5.73635125       4.13848839       1.04633000
Ce       3.80141170       0.77884037       1.04691000
Ce      -0.07718875       7.49570839       1.05181000
Ce       1.87372125       4.15492839       1.08925000
Ce      -0.08948830       0.78334037       1.06030000
Ce      -3.95923875       7.49479839       1.04787000
Ce      -2.01708875       4.13285839       1.03473000
O        7.70748165       3.00158037       4.93323000
O        9.60612165      -0.32255963       4.91512000
O        5.87251120       6.40482839       4.87570000
O        3.84454170       2.88479037       4.88606000
O        5.74257170      -0.32267963       4.91004000
O        1.41319125       6.63639839       5.29605000
O       -0.10194875       3.01982839       4.91703000
O        1.85430170      -0.33754963       4.93053000
O       -2.03414875       6.36269839       4.90904000
O        7.67903170       0.79071037       3.33181000
O        3.70999125       7.41717839       3.45711000
O        5.75955125       4.12217839       3.36885000
O        3.78756170       0.73101037       3.31441000
O       -0.08126875       7.49744839       3.31917000
O        1.88495125       4.24938839       3.45287000
O       -0.06901830       0.77316037       3.35045000
O       -3.92231875       7.53211839       3.31512000
O       -2.02969875       4.13001839       3.33068000
O        5.73703170       1.89905037       1.84090000
O        1.87331125       8.62967839       1.85641000
O        3.83061125       5.24046839       1.82648000
O        1.86115170       1.94812037       1.89017000
O       -2.00440875       8.60901839       1.81759000
O       -0.08364875       5.23906839       1.85553000
O        9.62172165       1.89510037       1.84634000
O        5.69389120       8.58984839       1.89368000
O        7.67444120       5.25774839       1.84365000
O        7.68211165       3.01605037       0.26196000
O        9.62500165      -0.34399963       0.27348000
O        5.74605120       6.38594839       0.26821000
O        3.79561170       3.00796037       0.26810000
O        5.74739170      -0.33865963       0.26348000
O        1.85884125       6.37772839       0.29460000
O       -0.07532830       3.01260037       0.27345000
O        1.83809170      -0.33069963       0.29800000
O       -2.01921875       6.36788839       0.26473000
O        3.38390125       5.43976839       6.38818000
H        2.03809125       6.24532839       5.98671000
H        3.58443125       5.00955839       7.23505000
C        3.41387125       4.95372839      10.90343000
O        3.41387125       4.95372839       9.75000000
59
Lattice="11.6375999451 0.0 0.0 -5.8188004494 10.0784580174 0.0 0.0 0.0 13.0" Properties=species:S:1:pos:R:3 Iteration:=T 13=T FORCE:=T ...=T F0:=T -468.18842724=T ENERGY(s->0):=T pbc="T T T"
Ce       5.75103689       1.87709886       4.14301000
Ce       1.83921644       8.69002687       4.15875000
Ce       3.92722644       5.18374687       4.25236000
Ce       1.86588689       1.89443886       4.16300000
Ce      -2.02218356       8.61847687       4.12419000
Ce      -0.15389356       5.23792687       4.15633000
Ce       9.61542684       1.89951886       4.15781000
Ce       5.74538639       8.61403687       4.16464000
Ce       7.70191639       5.25656687       4.14325000
Ce       7.68344689       0.77746886       1.03560000
Ce       3.79023644       7.47607687       1.09003000
Ce       5.73637644       4.13841687       1.04633000
Ce       3.80143689       0.77876886       1.04691000
Ce      -0.07716356       7.49563687       1.05181000
Ce       1.87374644       4.15485687       1.08925000
Ce      -0.08946311       0.78326886       1.06030000
Ce      -3.95921356       7.49472687       1.04787000
Ce      -2.01706356       4.13278687       1.03473000
O        7.70725684       3.00173886       4.93309000
O        9.60609684      -0.32239114       4.91555000
O        5.87341639       6.40505687       4.87601000
O        3.84471689       2.88382886       4.88629000
O        5.74252689      -0.32279114       4.91040000
O        1.41289644       6.63662687       5.29663000
O       -0.10215356       3.01975687       4.91749000
O        1.85439689      -0.33762114       4.93077000
O       -2.03406356       6.36276687       4.90943000
O        7.67916689       0.79106886       3.33167000
O        3.70991644       7.41780687       3.45725000
O        5.76025644       4.12179687       3.36899000
O        3.78771689       0.73091886       3.31386000
O       -0.08120356       7.49740687       3.31883000
O        1.88443644       4.24913687       3.45312000
O       -0.06928311       0.77313886       3.35095000
O       -3.92234356       7.53193687       3.31465000
O       -2.02998356       4.12970687       3.33051000
O        5.73705689       1.89897886       1.84090000
O        1.87333644       8.62960687       1.85641000
O        3.83063644       5.24039687       1.82648000
O        1.86117689       1.94804886       1.89017000
O       -2.00438356       8.60894687       1.81759000
O       -0.08362356       5.23899687       1.85553000
O        9.62174684       1.89502886       1.84634000
O        5.69391639       8.58977687       1.89368000
O        7.67446639       5.25767687       1.84365000
O        7.68213684       3.01597886       0.26196000
O        9.62502684      -0.34407114       0.27348000
O        5.74607639       6.38587687       0.26821000
O        3.79563689       3.00788886       0.26810000
O        5.74741689      -0.33873114       0.26348000
O        1.85886644       6.37765687       0.29460000
O       -0.07530311       3.01252886       0.27345000
O        1.83811689      -0.33077114       0.29800000
O       -2.01919356       6.36781687       0.26473000
O        3.38505644       5.43970687       6.38452000
H        2.03924644       6.24518687       5.98556000
H        3.58452644       5.01223687       7.23267000
C        3.41389644       4.95365687      10.75343000
O        3.41389644       4.95365687       9.60000000
59
Lattice="11.6375999451 0.0 0.0 -5.8188004494 10.0784580174 0.0 0.0 0.0 13.0" Properties=species:S:1:pos:R:3 Iteration:=T 26=T FORCE:=T ...=T F0:=T -468.18389673=T ENERGY(s->0):=T pbc="T T T"
Ce       5.75088658       1.87628586       4.14319000
Ce       1.83865613       8.69013387       4.15880000
Ce       3.92883613       5.18325387       4.24483000
Ce       1.86579658       1.89419586       4.16300000
Ce      -2.02242387       8.61841387       4.12379000
Ce      -0.15420387       5.23809387       4.15640000
Ce       9.61506652       1.89954586       4.15805000
Ce       5.74555607       8.61411387       4.16465000
Ce       7.70260607       5.25684387       4.14339000
Ce       7.68320658       0.77736586       1.03560000
Ce       3.78999613       7.47597387       1.09003000
Ce       5.73613613       4.13831387       1.04633000
Ce       3.80119658       0.77866586       1.04691000
Ce      -0.07740387       7.49553387       1.05181000
Ce       1.87350613       4.15475387       1.08925000
Ce      -0.08970342       0.78316586       1.06030000
Ce      -3.95945387       7.49462387       1.04787000
Ce      -2.01730387       4.13268387       1.03473000
O        7.70717652       3.00160586       4.93375000
O        9.60566652      -0.32244414       4.91621000
O        5.87532607       6.40549387       4.87431000
O        3.84489658       2.88245586       4.88509000
O        5.74214658      -0.32262414       4.91079000
O        1.40646613       6.64024387       5.29749000
O       -0.10232387       3.01990387       4.91824000
O        1.85416658      -0.33765414       4.93123000
O       -2.03440387       6.36283387       4.90983000
O        7.67884658       0.79086586       3.33195000
O        3.71012613       7.41787387       3.45579000
O        5.76153613       4.12089387       3.36708000
O        3.78740658       0.73016586       3.31371000
O       -0.08222387       7.49784387       3.31830000
O        1.88427613       4.24889387       3.45173000
O       -0.06946342       0.77309586       3.35121000
O       -3.92185387       7.53239387       3.31440000
O       -2.03001387       4.12978387       3.33081000
O        5.73681658       1.89887586       1.84090000
O        1.87309613       8.62950387       1.85641000
O        3.83039613       5.24029387       1.82648000
O        1.86093658       1.94794586       1.89017000
O       -2.00462387       8.60884387       1.81759000
O       -0.08386387       5.23889387       1.85553000
O        9.62150652       1.89492586       1.84634000
O        5.69367607       8.58967387       1.89368000
O        7.67422607       5.25757387       1.84365000
O        7.68189652       3.01587586       0.26196000
O        9.62478652      -0.34417414       0.27348000
O        5.74583607       6.38577387       0.26821000
O        3.79539658       3.00778586       0.26810000
O        5.74717658      -0.33883414       0.26348000
O        1.85862613       6.37755387       0.29460000
O       -0.07554342       3.01242586       0.27345000
O        1.83787658      -0.33087414       0.29800000
O       -2.01943387       6.36771387       0.26473000
O        3.38437613       5.44588387       6.37080000
H        2.04093613       6.24601387       5.97816000
H        3.58505613       5.01935387       7.21835000
C        3.41365613       4.95355387      10.60343000
O        3.41365613       4.95355387       9.45000000
59
Lattice="11.6375999451 0.0 0.0 -5.8188004494 10.0784580174 0.0 0.0 0.0 13.0" Properties=species:S:1:pos:R:3 Iteration:=T 53=T FORCE:=T ...=T F0:=T -468.17046162=T ENERGY(s->0):=T pbc="T T T"
Ce       5.75106490       1.87555905       4.14331000
Ce       1.83706445       8.68997707       4.15859000
Ce       3.93168445       5.18249707       4.23616000
Ce       1.86579490       1.89427905       4.16308000
Ce      -2.02262555       8.61816707       4.12343000
Ce      -0.15490555       5.23858707       4.15631000
Ce       9.61552484       1.89838905       4.15827000
Ce       5.74588439       8.61377707       4.16442000
Ce       7.70385439       5.25616707       4.14302000
Ce       7.68311490       0.77641905       1.03560000
Ce       3.78990445       7.47502707       1.09003000
Ce       5.73604445       4.13736707       1.04633000
Ce       3.80110490       0.77771905       1.04691000
Ce      -0.07749555       7.49458707       1.05181000
Ce       1.87341445       4.15380707       1.08925000
Ce      -0.08979510       0.78221905       1.06030000
Ce      -3.95954555       7.49367707       1.04787000
Ce      -2.01739555       4.13173707       1.03473000
O        7.70795484       3.00031905       4.93442000
O        9.60623484      -0.32309095       4.91546000
O        5.87760439       6.40460707       4.87111000
O        3.84540490       2.88418905       4.88554000
O        5.74157490      -0.32169095       4.91037000
O        1.38739445       6.65078707       5.30200000
O       -0.10109555       3.01906707       4.91806000
O        1.85358490      -0.33751095       4.93161000
O       -2.03525555       6.36210707       4.90930000
O        7.67883490       0.79040905       3.33175000
O        3.70859445       7.41691707       3.45498000
O        5.76405445       4.11854707       3.36509000
O        3.78690490       0.73027905       3.31381000
O       -0.08470555       7.49882707       3.31581000
O        1.88381445       4.25009707       3.45109000
O       -0.06918510       0.77250905       3.35077000
O       -3.92113555       7.53294707       3.31357000
O       -2.02974555       4.12859707       3.33071000
O        5.73672490       1.89792905       1.84090000
O        1.87300445       8.62855707       1.85641000
O        3.83030445       5.23934707       1.82648000
O        1.86084490       1.94699905       1.89017000
O       -2.00471555       8.60789707       1.81759000
O       -0.08395555       5.23794707       1.85553000
O        9.62141484       1.89397905       1.84634000
O        5.69358439       8.58872707       1.89368000
O        7.67413439       5.25662707       1.84365000
O        7.68180484       3.01492905       0.26196000
O        9.62469484      -0.34512095       0.27348000
O        5.74574439       6.38482707       0.26821000
O        3.79530490       3.00683905       0.26810000
O        5.74708490      -0.33978095       0.26348000
O        1.85853445       6.37660707       0.29460000