59
Lattice="11.6375999451 0.0 0.0 -5.8188004494 10.0784580174 0.0 0.0 0.0 13.0" Properties=species:S:1:pos:R:3 Iteration:=T 38=T FORCE:=T ...=T F0:=T -468.10447748=T ENERGY(s->0):=T pbc="T T T"
Ce       5.73079679       1.91508013       4.15734000
Ce       1.84899634       8.66886815       4.15194000
Ce       3.78701634       5.36272815       4.18976000
Ce       1.86216679       1.91569013       4.16454000
Ce      -2.02308366       8.64468815       4.14254000
Ce      -0.08427366       5.29409815       4.15741000
Ce       9.61593673       1.93919013       4.15766000
Ce       5.74386628       8.66698815       4.15522000
Ce       7.67232628       5.29461815       4.15430000
Ce       7.67501679       0.82081013       1.05201000
Ce       3.79661634       7.53812815       1.05139000
Ce       5.72346634       4.18019815       1.06946000
Ce       3.79496679       0.81482013       1.04937000
Ce      -0.08345366       7.53458815       1.05253000
Ce       1.86661634       4.17865815       1.06969000
Ce      -0.08121321       0.82017013       1.05392000
Ce      -3.96381366       7.53500815       1.05178000
Ce      -2.02296366       4.17033815       1.05594000
O        7.66695634       3.06504815       4.92898000
O        9.61476673      -0.28781987       4.92636000
O        5.77101628       6.45243815       4.93610000
O        3.80168679       2.88466013       5.02760000
O        5.73773679      -0.30770987       4.92513000
O        1.82505634       6.45969815       4.88787000
O       -0.08744366       3.05930815       4.91885000
O        1.85611679      -0.30948987       4.92889000
O       -2.02386366       6.40926815       4.92659000
O        7.67548679       0.81967013       3.34733000
O        3.80570634       7.53853815       3.36344000
O        5.67942634       4.18279815       3.38796000
O        3.79504679       0.79253013       3.32494000
O       -0.10398366       7.54294815       3.33547000
O        1.90986634       4.17211815       3.39167000
O       -0.08104321       0.81532013       3.35027000
O       -3.95194366       7.53884815       3.33816000
O       -2.02621366       4.17764815       3.34829000
O        5.73703679       1.94528013       1.85658000
O        1.85968634       8.65533815       1.85550000
O        3.79167634       5.31819815       1.83880000
O        1.85425679       1.94364013       1.85829000
O       -2.02657366       8.64890815       1.83244000
O       -0.06433366       5.28325815       1.87122000
O        9.61642673       1.93640013       1.85546000
O        5.73517628       8.65723815       1.85236000
O        7.65586628       5.28456815       1.86669000
O        7.67592634       3.05786815       0.27530000
O        9.61474679      -0.29943987       0.27101000
O        5.73947628       6.41933815       0.27128000
O        3.79564634       3.05764815       0.27984000
O        5.73969679      -0.30083987       0.27321000
O        1.85021634       6.42005815       0.27059000
O       -0.08284366       3.05874815       0.27497000
O        1.85333679      -0.29967987       0.27055000
O       -2.02171366       6.40037815       0.28096000
O        3.87325634       4.80642815       6.73506000
H        3.91984634       3.85814815       6.38306000
H        4.74377634       5.03148815       7.11023000
C        3.80180679       2.87260013      11.65343000
O        3.80180679       2.87260013      10.50000000
59
Lattice="11.6375999451 0.0 0.0 -5.8188004494 10.0784580174 0.0 0.0 0.0 13.0" Properties=species:S:1:pos:R:3 Iteration:=T 2=T FORCE:=T ...=T F0:=T -468.10740856=T ENERGY(s->0):=T pbc="T T T"
Ce       5.73084428       1.91507890       4.15734000
Ce       1.84900383       8.66889691       4.15194000
Ce       3.78700383       5.36270691       4.18982000
Ce       1.86211428       1.91570890       4.16453000
Ce      -2.02307617       8.64466691       4.14251000
Ce      -0.08428617       5.29408691       4.15741000
Ce       9.61594422       1.93916890       4.15767000
Ce       5.74385377       8.66702691       4.15522000
Ce       7.67234377       5.29460691       4.15430000
Ce       7.67501428       0.82080890       1.05201000
Ce       3.79661383       7.53812691       1.05139000
Ce       5.72346383       4.18019691       1.06946000
Ce       3.79496428       0.81481890       1.04937000
Ce      -0.08345617       7.53458691       1.05253000
Ce       1.86661383       4.17865691       1.06969000
Ce      -0.08121572       0.82016890       1.05392000
Ce      -3.96381617       7.53500691       1.05178000
Ce      -2.02296617       4.17033691       1.05594000
O        7.66693383       3.06504691       4.92897000
O        9.61476422      -0.28784110       4.92637000
O        5.77102377       6.45245691       4.93610000
O        3.80168428       2.88461890       5.02757000
O        5.73772428      -0.30770110       4.92513000
O        1.82504383       6.45971691       4.88786000
O       -0.08742617       3.05930691       4.91884000
O        1.85612428      -0.30948110       4.92890000
O       -2.02387617       6.40927691       4.92657000
O        7.67546428       0.81968890       3.34733000
O        3.80571383       7.53854691       3.36342000
O        5.67942383       4.18281691       3.38796000
O        3.79504428       0.79251890       3.32495000
O       -0.10399617       7.54293691       3.33548000
O        1.90986383       4.17212691       3.39168000
O       -0.08101572       0.81531890       3.35027000
O       -3.95194617       7.53883691       3.33818000
O       -2.02622617       4.17766691       3.34828000
O        5.73703428       1.94527890       1.85658000
O        1.85968383       8.65533691       1.85550000
O        3.79167383       5.31819691       1.83880000
O        1.85425428       1.94363890       1.85829000
O       -2.02657617       8.64890691       1.83244000
O       -0.06433617       5.28325691       1.87122000
O        9.61642422       1.93639890       1.85546000
O        5.73517377       8.65723691       1.85236000
O        7.65586377       5.28456691       1.86669000
O        7.67592383       3.05786691       0.27530000
O        9.61474428      -0.29944110       0.27101000
O        5.73947377       6.41933691       0.27128000
O        3.79564383       3.05764691       0.27984000
O        5.73969428      -0.30084110       0.27321000
O        1.85021383       6.42005691       0.27059000
O       -0.08284617       3.05874691       0.27497000
O        1.85333428      -0.29968110       0.27055000
O       -2.02171617       6.40037691       0.28096000
O        3.87333383       4.80639691       6.73502000
H        3.91985383       3.85820691       6.38311000
H        4.74378383       5.03148691       7.11014000
C        3.80180428       2.87259890      11.50343000
O        3.80180428       2.87259890      10.35000000
59
Lattice="11.6375999451 0.0 0.0 -5.8188004494 10.0784580174 0.0 0.0 0.0 13.0" Properties=species:S:1:pos:R:3 Iteration:=T 1=T FORCE:=T ...=T F0:=T -468.11077221=T ENERGY(s->0):=T pbc="T T T"
Ce       5.73084428       1.91507890       4.15734000
Ce       1.84900383       8.66889691       4.15194000
Ce       3.78700383       5.36270691       4.18982000
Ce       1.86211428       1.91570890       4.16453000
Ce      -2.02307617       8.64466691       4.14251000
Ce      -0.08428617       5.29408691       4.15741000
Ce       9.61594422       1.93916890       4.15767000
Ce       5.74385377       8.66702691       4.15522000
Ce       7.67234377       5.29460691       4.15430000
Ce       7.67501428       0.82080890       1.05201000
Ce       3.79661383       7.53812691       1.05139000
Ce       5.72346383       4.18019691       1.06946000
Ce       3.79496428       0.81481890       1.04937000
Ce      -0.08345617       7.53458691       1.05253000
Ce       1.86661383       4.17865691       1.06969000
Ce      -0.08121572       0.82016890       1.05392000
Ce      -3.96381617       7.53500691       1.05178000
Ce      -2.02296617       4.17033691       1.05594000
O        7.66693383       3.06504691       4.92897000
O        9.61476422      -0.28784110       4.92637000
O        5.77102377       6.45245691       4.93610000
O        3.80168428       2.88461890       5.02757000
O        5.73772428      -0.30770110       4.92513000
O        1.82504383       6.45971691       4.88786000
O       -0.08742617       3.05930691       4.91884000
O        1.85612428      -0.30948110       4.92890000
O       -2.02387617       6.40927691       4.92657000
O        7.67546428       0.81968890       3.34733000
O        3.80571383       7.53854691       3.36342000
O        5.67942383       4.18281691       3.38796000
O        3.79504428       0.79251890       3.32495000
O       -0.10399617       7.54293691       3.33548000
O        1.90986383       4.17212691       3.39168000
O       -0.08101572       0.81531890       3.35027000
O       -3.95194617       7.53883691       3.33818000
O       -2.02622617       4.17766691       3.34828000
O        5.73703428       1.94527890       1.85658000
O        1.85968383       8.65533691       1.85550000
O        3.79167383       5.31819691       1.83880000
O        1.85425428       1.94363890       1.85829000
O       -2.02657617       8.64890691       1.83244000
O       -0.06433617       5.28325691       1.87122000
O        9.61642422       1.93639890       1.85546000
O        5.73517377       8.65723691       1.85236000
O        7.65586377       5.28456691       1.86669000
O        7.67592383       3.05786691       0.27530000
O        9.61474428      -0.29944110       0.27101000
O        5.73947377       6.41933691       0.27128000
O        3.79564383       3.05764691       0.27984000
O        5.73969428      -0.30084110       0.27321000
O        1.85021383       6.42005691       0.27059000
O       -0.08284617       3.05874691       0.27497000
O        1.85333428      -0.29968110       0.27055000
O       -2.02171617       6.40037691       0.28096000
O        3.87333383       4.80639691       6.73502000
H        3.91985383       3.85820691       6.38311000
H        4.74378383       5.03148691       7.11014000
C        3.80180428       2.87259890      11.35343000
O        3.80180428       2.87259890      10.20000000
59
Lattice="11.6375999451 0.0 0.0 -5.8188004494 10.0784580174 0.0 0.0 0.0 13.0" Properties=species:S:1:pos:R:3 Iteration:=T 1=T FORCE:=T ...=T F0:=T -468.11446013=T ENERGY(s->0):=T pbc="T T T"
Ce       5.73084428       1.91507890       4.15734000
Ce       1.84900383       8.66889691       4.15194000
Ce       3.78700383       5.36270691       4.18982000
Ce       1.86211428       1.91570890       4.16453000
Ce      -2.02307617       8.64466691       4.14251000
Ce      -0.08428617       5.29408691       4.15741000
Ce       9.61594422       1.93916890       4.15767000
Ce       5.74385377       8.66702691       4.15522000
Ce       7.67234377       5.29460691       4.15430000
Ce       7.67501428       0.82080890       1.05201000
Ce       3.79661383       7.53812691       1.05139000
Ce       5.72346383       4.18019691       1.06946000
Ce       3.79496428       0.81481890       1.04937000
Ce      -0.08345617       7.53458691       1.05253000
Ce       1.86661383       4.17865691       1.06969000
Ce      -0.08121572       0.82016890       1.05392000
Ce      -3.96381617       7.53500691       1.05178000
Ce      -2.02296617       4.17033691       1.05594000
O        7.66693383       3.06504691       4.92897000
O        9.61476422      -0.28784110       4.92637000
O        5.77102377       6.45245691       4.93610000
O        3.80168428       2.88461890       5.02757000
O        5.73772428      -0.30770110       4.92513000
O        1.82504383       6.45971691       4.88786000
O       -0.08742617       3.05930691       4.91884000
O        1.85612428      -0.30948110       4.92890000
O       -2.02387617       6.40927691       4.92657000
O        7.67546428       0.81968890       3.34733000
O        3.80571383       7.53854691       3.36342000
O        5.67942383       4.18281691       3.38796000
O        3.79504428       0.79251890       3.32495000
O       -0.10399617       7.54293691       3.33548000
O        1.90986383       4.17212691       3.39168000
O       -0.08101572       0.81531890       3.35027000
O       -3.95194617       7.53883691       3.33818000
O       -2.02622617       4.17766691       3.34828000
O        5.73703428       1.94527890       1.85658000
O        1.85968383       8.65533691       1.85550000
O        3.79167383       5.31819691       1.83880000
O        1.85425428       1.94363890       1.85829000
O       -2.02657617       8.64890691       1.83244000
O       -0.06433617       5.28325691       1.87122000
O        9.61642422       1.93639890       1.85546000
O        5.73517377       8.65723691       1.85236000
O        7.65586377       5.28456691       1.86669000
O        7.67592383       3.05786691       0.27530000
O        9.61474428      -0.29944110       0.27101000
O        5.73947377       6.41933691       0.27128000
O        3.79564383       3.05764691       0.27984000
O        5.73969428      -0.30084110       0.27321000
O        1.85021383       6.42005691       0.27059000
O       -0.08284617       3.05874691       0.27497000
O        1.85333428      -0.29968110       0.27055000
O       -2.02171617       6.40037691       0.28096000
O        3.87333383       4.80639691       6.73502000
H        3.91985383       3.85820691       6.38311000
H        4.74378383       5.03148691       7.11014000
C        3.80180428       2.87259890      11.20343000
O        3.80180428       2.87259890      10.05000000
59
Lattice="11.6375999451 0.0 0.0 -5.8188004494 10.0784580174 0.0 0.0 0.0 13.0" Properties=species:S:1:pos:R:3 Iteration:=T 13=T FORCE:=T ...=T F0:=T -468.11841259=T ENERGY(s->0):=T pbc="T T T"
Ce       5.73090735       1.91494881       4.15732000
Ce       1.84889690       8.66902683       4.15184000
Ce       3.78697690       5.36258683       4.18998000
Ce       1.86201735       1.91554881       4.16452000
Ce      -2.02312310       8.64474683       4.14203000
Ce      -0.08448310       5.29413683       4.15731000
Ce       9.61595729       1.93890881       4.15760000
Ce       5.74395684       8.66713683       4.15512000
Ce       7.67243684       5.29468683       4.15414000
Ce       7.67496735       0.82075881       1.05201000
Ce       3.79656690       7.53807683       1.05139000
Ce       5.72341690       4.18014683       1.06946000
Ce       3.79491735       0.81476881       1.04937000
Ce      -0.08350310       7.53453683       1.05253000
Ce       1.86656690       4.17860683       1.06969000
Ce      -0.08126265       0.82011881       1.05392000
Ce      -3.96386310       7.53495683       1.05178000
Ce      -2.02301310       4.17028683       1.05594000
O        7.66672690       3.06478683       4.92899000
O        9.61472729      -0.28787119       4.92648000
O        5.77149684       6.45327683       4.93617000
O        3.80149735       2.88337881       5.02645000
O        5.73773735      -0.30753119       4.92525000
O        1.82470690       6.46038683       4.88790000
O       -0.08741310       3.05900683       4.91899000
O        1.85610735      -0.30929119       4.92920000
O       -2.02386310       6.40934683       4.92634000
O        7.67530735       0.81994881       3.34747000
O        3.80572690       7.53870683       3.36321000
O        5.67925690       4.18318683       3.38830000
O        3.79499735       0.79166881       3.32454000
O       -0.10414310       7.54278683       3.33530000
O        1.90981690       4.17239683       3.39219000
O       -0.08088265       0.81551881       3.35031000
O       -3.95191310       7.53869683       3.33806000
O       -2.02631310       4.17763683       3.34825000
O        5.73698735       1.94522881       1.85658000
O        1.85963690       8.65528683       1.85550000
O        3.79162690       5.31814683       1.83880000
O        1.85420735       1.94358881       1.85829000
O       -2.02662310       8.64885683       1.83244000
O       -0.06438310       5.28320683       1.87122000
O        9.61637729       1.93634881       1.85546000
O        5.73512684       8.65718683       1.85236000
O        7.65581684       5.28451683       1.86669000
O        7.67587690       3.05781683       0.27530000
O        9.61469735      -0.29949119       0.27101000
O        5.73942684       6.41928683       0.27128000
O        3.79559690       3.05759683       0.27984000
O        5.73964735      -0.30089119       0.27321000
O        1.85016690       6.42000683       0.27059000
O       -0.08289310       3.05869683       0.27497000
O        1.85328735      -0.29973119       0.27055000
O       -2.02176310       6.40032683       0.28096000
O        3.87573690       4.80818683       6.73175000
H        3.91929690       3.85791683       6.38702000
H        4.74638690       5.03146683       7.10721000
C        3.80175735       2.87254881      11.05343000
O        3.80175735       2.87254881       9.90000000
59
Lattice="11.6375999451 0.0 0.0 -5.8188004494 10.0784580174 0.0 0.0 0.0 13.0" Properties=species:S:1:pos:R:3 Iteration:=T 1=T FORCE:=T ...=T F0:=T -468.12240889=T ENERGY(s->0):=T pbc="T T T"
Ce       5.73090735       1.91494881       4.15732000
Ce       1.84889690       8.66902683       4.15184000
Ce       3.78697690       5.36258683       4.18998000
Ce       1.86201735       1.91554881       4.16452000
Ce      -2.02312310       8.64474683       4.14203000
Ce      -0.08448310       5.29413683       4.15731000
Ce       9.61595729       1.93890881       4.15760000
Ce       5.74395684       8.66713683       4.15512000
Ce       7.67243684       5.29468683       4.15414000
Ce       7.67496735       0.82075881       1.05201000
Ce       3.79656690       7.53807683       1.05139000
Ce       5.72341690       4.18014683       1.06946000
Ce       3.79491735       0.81476881       1.04937000
Ce      -0.08350310       7.53453683       1.05253000
Ce       1.86656690       4.17860683       1.06969000
Ce      -0.08126265       0.82011881       1.05392000
Ce      -3.96386310       7.53495683       1.05178000
Ce      -2.02301310       4.17028683       1.05594000
O        7.66672690       3.06478683       4.92899000
O        9.61472729      -0.28787119       4.92648000
O        5.77149684       6.45327683       4.93617000
O        3.80149735       2.88337881       5.02645000
O        5.73773735      -0.30753119       4.92525000
O        1.82470690       6.46038683       4.88790000
O       -0.08741310       3.05900683       4.91899000
O        1.85610735      -0.30929119       4.92920000
O       -2.02386310       6.40934683       4.92634000
O        7.67530735       0.81994881       3.34747000
O        3.80572690       7.53870683       3.36321000
O        5.67925690       4.18318683       3.38830000
O        3.79499735       0.79166881       3.32454000
O       -0.10414310       7.54278683       3.33530000
O        1.90981690       4.17239683       3.39219000
O       -0.08088265       0.81551881       3.35031000
O       -3.95191310       7.53869683       3.33806000
O       -2.02631310       4.17763683       3.34825000
O        5.73698735       1.94522881       1.85658000
O        1.85963690       8.65528683       1.85550000
O        3.79162690       5.31814683       1.83880000
O        1.85420735       1.94358881       1.85829000
O       -2.02662310       8.64885683       1.83244000
O       -0.06438310       5.28320683       1.87122000
O        9.61637729       1.93634881       1.85546000
O        5.73512684       8.65718683       1.85236000
O        7.65581684       5.28451683       1.86669000
O        7.67587690       3.05781683       0.27530000
O        9.61469735      -0.29949119       0.27101000
O        5.73942684       6.41928683       0.27128000
O        3.79559690       3.05759683       0.27984000
O        5.73964735      -0.30089119       0.27321000
O        1.85016690       6.42000683       0.27059000
O       -0.08289310       3.05869683       0.27497000
O        1.85328735      -0.29973119       0.27055000
O       -2.02176310       6.40032683       0.28096000
O        3.87573690       4.80818683       6.73175000
H        3.91929690       3.85791683       6.38702000
H        4.74638690       5.03146683       7.10721000
C        3.80175735       2.87254881      10.90343000
O        3.80175735       2.87254881       9.75000000
59
Lattice="11.6375999451 0.0 0.0 -5.8188004494 10.0784580174 0.0 0.0 0.0 13.0" Properties=species:S:1:pos:R:3 Iteration:=T 5=T FORCE:=T ...=T F0:=T -468.12635604=T ENERGY(s->0):=T pbc="T T T"
Ce       5.73079153       1.91499442       4.15743000
Ce       1.84892108       8.66903243       4.15186000
Ce       3.78698108       5.36252243       4.18998000
Ce       1.86210153       1.91560442       4.16459000
Ce      -2.02309892       8.64473243       4.14206000
Ce      -0.08444892       5.29408243       4.15732000
Ce       9.61595147       1.93894442       4.15764000
Ce       5.74392102       8.66715243       4.15514000
Ce       7.67241102       5.29463243       4.15418000
Ce       7.67496153       0.82074442       1.05201000
Ce       3.79656108       7.53806243       1.05139000
Ce       5.72341108       4.18013243       1.06946000
Ce       3.79491153       0.81475442       1.04937000
Ce      -0.08350892       7.53452243       1.05253000
Ce       1.86656108       4.17859243       1.06969000
Ce      -0.08126847       0.82010442       1.05392000
Ce      -3.96386892       7.53494243       1.05178000
Ce      -2.02301892       4.17027243       1.05594000
O        7.66671108       3.06493243       4.92906000
O        9.61475147      -0.28792558       4.92650000
O        5.77157102       6.45329243       4.93621000
O        3.80131153       2.88320442       5.02654000
O        5.73768153      -0.30763558       4.92529000
O        1.82471108       6.46032243       4.88798000
O       -0.08743892       3.05912243       4.91907000
O        1.85614153      -0.30941558       4.92924000
O       -2.02388892       6.40933243       4.92642000
O        7.67532153       0.81979442       3.34731000
O        3.80574108       7.53862243       3.36323000
O        5.67928108       4.18324243       3.38822000
O        3.79499153       0.79163442       3.32458000
O       -0.10418892       7.54283243       3.33535000
O        1.90978108       4.17245243       3.39203000
O       -0.08090847       0.81534442       3.35023000
O       -3.95186892       7.53877243       3.33810000
O       -2.02630892       4.17771243       3.34825000
O        5.73698153       1.94521442       1.85658000
O        1.85963108       8.65527243       1.85550000
O        3.79162108       5.31813243       1.83880000
O        1.85420153       1.94357442       1.85829000
O       -2.02662892       8.64884243       1.83244000
O       -0.06438892       5.28319243       1.87122000
O        9.61637147       1.93633442       1.85546000
O        5.73512102       8.65717243       1.85236000
O        7.65581102       5.28450243       1.86669000
O        7.67587108       3.05780243       0.27530000
O        9.61469153      -0.29950558       0.27101000
O        5.73942102       6.41927243       0.27128000
O        3.79559108       3.05758243       0.27984000
O        5.73964153      -0.30090558       0.27321000
O        1.85016108       6.41999243       0.27059000
O       -0.08289892       3.05868243       0.27497000
O        1.85328153      -0.29974558       0.27055000
O       -2.02176892       6.40031243       0.28096000
O        3.87600108       4.80883243       6.73124000
H        3.91930108       3.85811243       6.38733000
H        4.74687108       5.03154243       7.10677000
C        3.80175153       2.87253442      10.75343000
O        3.80175153       2.87253442       9.60000000
59
Lattice="11.6375999451 0.0 0.0 -5.8188004494 10.0784580174 0.0 0.0 0.0 13.0" Properties=species:S:1:pos:R:3 Iteration:=T 31=T FORCE:=T ...=T F0:=T -468.12998213=T ENERGY(s->0):=T pbc="T T T"
Ce       5.73015578       1.91460968       4.15776000
Ce       1.84866533       8.66900769       4.15211000
Ce       3.78686533       5.36295769       4.18824000
Ce       1.86225578       1.91531968       4.16490000
Ce      -2.02312467       8.64443769       4.14212000
Ce      -0.08444467       5.29395769       4.15744000
Ce       9.61574573       1.93883968       4.15784000
Ce       5.74442528       8.66715769       4.15531000
Ce       7.67259528       5.29471769       4.15425000
Ce       7.67489578       0.82054968       1.05201000
Ce       3.79649533       7.53786769       1.05139000
Ce       5.72334533       4.17993769       1.06946000
Ce       3.79484578       0.81455968       1.04937000
Ce      -0.08357467       7.53432769       1.05253000
Ce       1.86649533       4.17839769       1.06969000
Ce      -0.08133422       0.81990968       1.05392000
Ce      -3.96393467       7.53474769       1.05178000
Ce      -2.02308467       4.17007769       1.05594000
O        7.66651533       3.06479769       4.92942000
O        9.61447573      -0.28785032       4.92676000
O        5.77336528       6.45438769       4.93524000
O        3.79942578       2.88122968       5.02800000
O        5.73775578      -0.30770032       4.92589000
O        1.82417533       6.46046769       4.88767000
O       -0.08774467       3.05915769       4.91958000
O        1.85608578      -0.30990032       4.92970000
O       -2.02394467       6.40910769       4.92680000
O        7.67507578       0.81974968       3.34759000
O        3.80567533       7.53880769       3.36298000
O        5.67866533       4.18280769       3.38820000
O        3.79515578       0.79099968       3.32431000
O       -0.10422467       7.54294769       3.33545000
O        1.90971533       4.17242769       3.39146000
O       -0.08111422       0.81527968       3.35049000
O       -3.95132467       7.53896769       3.33776000
O       -2.02640467       4.17727769       3.34842000
O        5.73691578       1.94501968       1.85658000
O        1.85956533       8.65507769       1.85550000
O        3.79155533       5.31793769       1.83880000
O        1.85413578       1.94337968       1.85829000
O       -2.02669467       8.64864769       1.83244000
O       -0.06445467       5.28299769       1.87122000
O        9.61630573       1.93613968       1.85546000
O        5.73505528       8.65697769       1.85236000
O        7.65574528       5.28430769       1.86669000
O        7.67580533       3.05760769       0.27530000
O        9.61462578      -0.29970032       0.27101000
O        5.73935528       6.41907769       0.27128000
O        3.79552533       3.05738769       0.27984000
O        5.73957578      -0.30110032       0.27321000
O        1.85009533       6.41979769       0.27059000
O       -0.08296467       3.05848769       0.27497000
O        1.85321578      -0.29994032       0.27055000
O       -2.02183467       6.40011769       0.28096000
O        3.88116533       4.81689769       6.72612000
H        3.91783533       3.86394769       6.38894000
H        4.75389533       5.03740769       7.09852000
C        3.80168578       2.87233968      10.60343000
O        3.80168578       2.87233968       9.45000000
59
Lattice="11.6375999451 0.0 0.0 -5.8188004494 10.0784580174 0.0 0.0 0.0 13.0" Properties=species:S:1:pos:R:3 Iteration:=T 85=T FORCE:=T ...=T F0:=T -468.13357661=T ENERGY(s->0):=T pbc="T T T"
Ce       5.72921884       1.91667408       4.15809000
Ce       1.84832839       8.66815210       4.15211000
Ce       3.78349839       5.35788210       4.18695000
Ce       1.86247884       1.91677408       4.16568000
Ce      -2.02320161       8.64486210       4.14262000
Ce      -0.08585161       5.29357210       4.15747000
Ce       9.61518878       1.93772408       4.15748000
Ce       5.74433833       8.66583210       4.15561000
Ce       7.67229833       5.29490210       4.15397000
Ce       7.67434884       0.81998408       1.05201000
Ce       3.79594839       7.53730210       1.05139000
Ce       5.72279839       4.17937210       1.06946000
Ce       3.79429884       0.81399408       1.04937000
Ce      -0.08412161       7.53376210       1.05253000
Ce       1.86594839       4.17783210       1.06969000
Ce      -0.08188116       0.81934408       1.05392000
Ce      -3.96448161       7.53418210       1.05178000
Ce      -2.02363161       4.16951210       1.05594000
O        7.66443839       3.06441210       4.92940000
O        9.61331878      -0.28894592       4.92600000
O        5.77710833       6.45233210       4.93992000
O        3.80060884       2.89424408       5.02626000
O        5.73677884      -0.30844592       4.92506000
O        1.82369839       6.45642210       4.88865000
O       -0.08715161       3.05865210       4.91996000
O        1.85631884      -0.31001592       4.92946000
O       -2.02394161       6.40883210       4.92651000
O        7.67424884       0.81916408       3.34766000
O        3.80575839       7.53675210       3.36408000
O        5.67944839       4.18336210       3.38671000
O        3.79451884       0.79352408       3.32666000
O       -0.10436161       7.54244210       3.33586000
O        1.90760839       4.17111210       3.38981000
O       -0.08120116       0.81479408       3.35112000
O       -3.95168161       7.53903210       3.33768000
O       -2.02666161       4.17644210       3.34848000
O        5.73636884       1.94445408       1.85658000
O        1.85901839       8.65451210       1.85550000
O        3.79100839       5.31737210       1.83880000
O        1.85358884       1.94281408       1.85829000
O       -2.02724161       8.64808210       1.83244000
O       -0.06500161       5.28243210       1.87122000
O        9.61575878       1.93557408       1.85546000
O        5.73450833       8.65641210       1.85236000
O        7.65519833       5.28374210       1.86669000
O        7.67525839       3.05704210       0.27530000
O        9.61407884      -0.30026592       0.27101000
O        5.73880833       6.41851210       0.27128000
O        3.79497839       3.05682210       0.27984000
O        5.73902884      -0.30166592       0.27321000
O        1.84954839       6.41923210       0.27059000