59
Lattice="11.6375999451 0.0 0.0 -5.8188004494 10.0784580174 0.0 0.0 0.0 13.0" Properties=species:S:1:pos:R:3 Iteration:=T 102=T FORCE:=T ...=T F0:=T -468.10100866=T ENERGY(s->0):=T pbc="T T T"
Ce       5.75566606       1.88678176       4.15693000
Ce       1.87375561       8.64048978       4.15209000
Ce       3.80965561       5.33311978       4.18758000
Ce       1.88705606       1.88724176       4.16489000
Ce      -1.99814439       8.61596978       4.14213000
Ce      -0.06013439       5.26520978       4.15752000
Ce       9.64073600       1.91020176       4.15776000
Ce       5.76927555       8.63831978       4.15555000
Ce       7.69729555       5.26631978       4.15384000
Ce       7.69972606       0.79218176       1.05201000
Ce       3.82132561       7.50949978       1.05139000
Ce       5.74817561       4.15156978       1.06946000
Ce       3.81967606       0.78619176       1.04937000
Ce      -0.05874439       7.50595978       1.05253000
Ce       1.89132561       4.15002978       1.06969000
Ce      -0.05650394       0.79154176       1.05392000
Ce      -3.93910439       7.50637978       1.05178000
Ce      -1.99825439       4.14170978       1.05594000
O        7.69059561       3.03637978       4.92886000
O        9.63919600      -0.31687824       4.92570000
O        5.79987555       6.42474978       4.93810000
O        3.82713606       2.85821176       5.02644000
O        5.76267606      -0.33644824       4.92478000
O        1.85005561       6.42967978       4.88801000
O       -0.06254439       3.03026978       4.91852000
O        1.88119606      -0.33784824       4.92914000
O       -1.99877439       6.38076978       4.92593000
O        7.70010606       0.79119176       3.34725000
O        3.83106561       7.50955978       3.36350000
O        5.70414561       4.15524978       3.38750000
O        3.81969606       0.76377176       3.32511000
O       -0.07878439       7.51406978       3.33544000
O        1.93392561       4.14322978       3.39100000
O       -0.05591394       0.78664176       3.35040000
O       -3.92694439       7.51056978       3.33765000
O       -2.00153439       4.14868978       3.34841000
O        5.76174606       1.91665176       1.85658000
O        1.88439561       8.62670978       1.85550000
O        3.81638561       5.28956978       1.83880000
O        1.87896606       1.91501176       1.85829000
O       -2.00186439       8.62027978       1.83244000
O       -0.03962439       5.25462978       1.87122000
O        9.64113600       1.90777176       1.85546000
O        5.75988555       8.62860978       1.85236000
O        7.68057555       5.25593978       1.86669000
O        7.70063561       3.02923978       0.27530000
O        9.63945606      -0.32806824       0.27101000
O        5.76418555       6.39070978       0.27128000
O        3.82035561       3.02901978       0.27984000
O        5.76440606      -0.32946824       0.27321000
O        1.87492561       6.39142978       0.27059000
O       -0.05813439       3.03011978       0.27497000
O        1.87804606      -0.32830824       0.27055000
O       -1.99700439       6.37174978       0.28096000
O        3.95125561       4.79389978       6.72804000
H        3.98558561       3.84324978       6.38500000
H        4.84394561       5.03581978       7.03532000
C        2.40650561       4.44226978      11.65343000
O        2.40650561       4.44226978      10.50000000
59
Lattice="11.6375999451 0.0 0.0 -5.8188004494 10.0784580174 0.0 0.0 0.0 13.0" Properties=species:S:1:pos:R:3 Iteration:=T 1=T FORCE:=T ...=T F0:=T -468.10319444=T ENERGY(s->0):=T pbc="T T T"
Ce       5.75566606       1.88678176       4.15693000
Ce       1.87375561       8.64048978       4.15209000
Ce       3.80965561       5.33311978       4.18758000
Ce       1.88705606       1.88724176       4.16489000
Ce      -1.99814439       8.61596978       4.14213000
Ce      -0.06013439       5.26520978       4.15752000
Ce       9.64073600       1.91020176       4.15776000
Ce       5.76927555       8.63831978       4.15555000
Ce       7.69729555       5.26631978       4.15384000
Ce       7.69972606       0.79218176       1.05201000
Ce       3.82132561       7.50949978       1.05139000
Ce       5.74817561       4.15156978       1.06946000
Ce       3.81967606       0.78619176       1.04937000
Ce      -0.05874439       7.50595978       1.05253000
Ce       1.89132561       4.15002978       1.06969000
Ce      -0.05650394       0.79154176       1.05392000
Ce      -3.93910439       7.50637978       1.05178000
Ce      -1.99825439       4.14170978       1.05594000
O        7.69059561       3.03637978       4.92886000
O        9.63919600      -0.31687824       4.92570000
O        5.79987555       6.42474978       4.93810000
O        3.82713606       2.85821176       5.02644000
O        5.76267606      -0.33644824       4.92478000
O        1.85005561       6.42967978       4.88801000
O       -0.06254439       3.03026978       4.91852000
O        1.88119606      -0.33784824       4.92914000
O       -1.99877439       6.38076978       4.92593000
O        7.70010606       0.79119176       3.34725000
O        3.83106561       7.50955978       3.36350000
O        5.70414561       4.15524978       3.38750000
O        3.81969606       0.76377176       3.32511000
O       -0.07878439       7.51406978       3.33544000
O        1.93392561       4.14322978       3.39100000
O       -0.05591394       0.78664176       3.35040000
O       -3.92694439       7.51056978       3.33765000
O       -2.00153439       4.14868978       3.34841000
O        5.76174606       1.91665176       1.85658000
O        1.88439561       8.62670978       1.85550000
O        3.81638561       5.28956978       1.83880000
O        1.87896606       1.91501176       1.85829000
O       -2.00186439       8.62027978       1.83244000
O       -0.03962439       5.25462978       1.87122000
O        9.64113600       1.90777176       1.85546000
O        5.75988555       8.62860978       1.85236000
O        7.68057555       5.25593978       1.86669000
O        7.70063561       3.02923978       0.27530000
O        9.63945606      -0.32806824       0.27101000
O        5.76418555       6.39070978       0.27128000
O        3.82035561       3.02901978       0.27984000
O        5.76440606      -0.32946824       0.27321000
O        1.87492561       6.39142978       0.27059000
O       -0.05813439       3.03011978       0.27497000
O        1.87804606      -0.32830824       0.27055000
O       -1.99700439       6.37174978       0.28096000
O        3.95125561       4.79389978       6.72804000
H        3.98558561       3.84324978       6.38500000
H        4.84394561       5.03581978       7.03532000
C        2.40650561       4.44226978      11.50343000
O        2.40650561       4.44226978      10.35000000
59
Lattice="11.6375999451 0.0 0.0 -5.8188004494 10.0784580174 0.0 0.0 0.0 13.0" Properties=species:S:1:pos:R:3 Iteration:=T 1=T FORCE:=T ...=T F0:=T -468.10551763=T ENERGY(s->0):=T pbc="T T T"
Ce       5.75566606       1.88678176       4.15693000
Ce       1.87375561       8.64048978       4.15209000
Ce       3.80965561       5.33311978       4.18758000
Ce       1.88705606       1.88724176       4.16489000
Ce      -1.99814439       8.61596978       4.14213000
Ce      -0.06013439       5.26520978       4.15752000
Ce       9.64073600       1.91020176       4.15776000
Ce       5.76927555       8.63831978       4.15555000
Ce       7.69729555       5.26631978       4.15384000
Ce       7.69972606       0.79218176       1.05201000
Ce       3.82132561       7.50949978       1.05139000
Ce       5.74817561       4.15156978       1.06946000
Ce       3.81967606       0.78619176       1.04937000
Ce      -0.05874439       7.50595978       1.05253000
Ce       1.89132561       4.15002978       1.06969000
Ce      -0.05650394       0.79154176       1.05392000
Ce      -3.93910439       7.50637978       1.05178000
Ce      -1.99825439       4.14170978       1.05594000
O        7.69059561       3.03637978       4.92886000
O        9.63919600      -0.31687824       4.92570000
O        5.79987555       6.42474978       4.93810000
O        3.82713606       2.85821176       5.02644000
O        5.76267606      -0.33644824       4.92478000
O        1.85005561       6.42967978       4.88801000
O       -0.06254439       3.03026978       4.91852000
O        1.88119606      -0.33784824       4.92914000
O       -1.99877439       6.38076978       4.92593000
O        7.70010606       0.79119176       3.34725000
O        3.83106561       7.50955978       3.36350000
O        5.70414561       4.15524978       3.38750000
O        3.81969606       0.76377176       3.32511000
O       -0.07878439       7.51406978       3.33544000
O        1.93392561       4.14322978       3.39100000
O       -0.05591394       0.78664176       3.35040000
O       -3.92694439       7.51056978       3.33765000
O       -2.00153439       4.14868978       3.34841000
O        5.76174606       1.91665176       1.85658000
O        1.88439561       8.62670978       1.85550000
O        3.81638561       5.28956978       1.83880000
O        1.87896606       1.91501176       1.85829000
O       -2.00186439       8.62027978       1.83244000
O       -0.03962439       5.25462978       1.87122000
O        9.64113600       1.90777176       1.85546000
O        5.75988555       8.62860978       1.85236000
O        7.68057555       5.25593978       1.86669000
O        7.70063561       3.02923978       0.27530000
O        9.63945606      -0.32806824       0.27101000
O        5.76418555       6.39070978       0.27128000
O        3.82035561       3.02901978       0.27984000
O        5.76440606      -0.32946824       0.27321000
O        1.87492561       6.39142978       0.27059000
O       -0.05813439       3.03011978       0.27497000
O        1.87804606      -0.32830824       0.27055000
O       -1.99700439       6.37174978       0.28096000
O        3.95125561       4.79389978       6.72804000
H        3.98558561       3.84324978       6.38500000
H        4.84394561       5.03581978       7.03532000
C        2.40650561       4.44226978      11.35343000
O        2.40650561       4.44226978      10.20000000
59
Lattice="11.6375999451 0.0 0.0 -5.8188004494 10.0784580174 0.0 0.0 0.0 13.0" Properties=species:S:1:pos:R:3 Iteration:=T 1=T FORCE:=T ...=T F0:=T -468.10778525=T ENERGY(s->0):=T pbc="T T T"
Ce       5.75566606       1.88678176       4.15693000
Ce       1.87375561       8.64048978       4.15209000
Ce       3.80965561       5.33311978       4.18758000
Ce       1.88705606       1.88724176       4.16489000
Ce      -1.99814439       8.61596978       4.14213000
Ce      -0.06013439       5.26520978       4.15752000
Ce       9.64073600       1.91020176       4.15776000
Ce       5.76927555       8.63831978       4.15555000
Ce       7.69729555       5.26631978       4.15384000
Ce       7.69972606       0.79218176       1.05201000
Ce       3.82132561       7.50949978       1.05139000
Ce       5.74817561       4.15156978       1.06946000
Ce       3.81967606       0.78619176       1.04937000
Ce      -0.05874439       7.50595978       1.05253000
Ce       1.89132561       4.15002978       1.06969000
Ce      -0.05650394       0.79154176       1.05392000
Ce      -3.93910439       7.50637978       1.05178000
Ce      -1.99825439       4.14170978       1.05594000
O        7.69059561       3.03637978       4.92886000
O        9.63919600      -0.31687824       4.92570000
O        5.79987555       6.42474978       4.93810000
O        3.82713606       2.85821176       5.02644000
O        5.76267606      -0.33644824       4.92478000
O        1.85005561       6.42967978       4.88801000
O       -0.06254439       3.03026978       4.91852000
O        1.88119606      -0.33784824       4.92914000
O       -1.99877439       6.38076978       4.92593000
O        7.70010606       0.79119176       3.34725000
O        3.83106561       7.50955978       3.36350000
O        5.70414561       4.15524978       3.38750000
O        3.81969606       0.76377176       3.32511000
O       -0.07878439       7.51406978       3.33544000
O        1.93392561       4.14322978       3.39100000
O       -0.05591394       0.78664176       3.35040000
O       -3.92694439       7.51056978       3.33765000
O       -2.00153439       4.14868978       3.34841000
O        5.76174606       1.91665176       1.85658000
O        1.88439561       8.62670978       1.85550000
O        3.81638561       5.28956978       1.83880000
O        1.87896606       1.91501176       1.85829000
O       -2.00186439       8.62027978       1.83244000
O       -0.03962439       5.25462978       1.87122000
O        9.64113600       1.90777176       1.85546000
O        5.75988555       8.62860978       1.85236000
O        7.68057555       5.25593978       1.86669000
O        7.70063561       3.02923978       0.27530000
O        9.63945606      -0.32806824       0.27101000
O        5.76418555       6.39070978       0.27128000
O        3.82035561       3.02901978       0.27984000
O        5.76440606      -0.32946824       0.27321000
O        1.87492561       6.39142978       0.27059000
O       -0.05813439       3.03011978       0.27497000
O        1.87804606      -0.32830824       0.27055000
O       -1.99700439       6.37174978       0.28096000
O        3.95125561       4.79389978       6.72804000
H        3.98558561       3.84324978       6.38500000
H        4.84394561       5.03581978       7.03532000
C        2.40650561       4.44226978      11.20343000
O        2.40650561       4.44226978      10.05000000
59
Lattice="11.6375999451 0.0 0.0 -5.8188004494 10.0784580174 0.0 0.0 0.0 13.0" Properties=species:S:1:pos:R:3 Iteration:=T 14=T FORCE:=T ...=T F0:=T -468.10984875=T ENERGY(s->0):=T pbc="T T T"
Ce       5.75560613       1.88679530       4.15689000
Ce       1.87375568       8.64042332       4.15210000
Ce       3.80958568       5.33298332       4.18777000
Ce       1.88708613       1.88729530       4.16494000
Ce      -1.99811432       8.61602332       4.14218000
Ce      -0.06015432       5.26520332       4.15762000
Ce       9.64069608       1.91012530       4.15770000
Ce       5.76931563       8.63829332       4.15556000
Ce       7.69734563       5.26640332       4.15386000
Ce       7.69966613       0.79214530       1.05201000
Ce       3.82126568       7.50946332       1.05139000
Ce       5.74811568       4.15153332       1.06946000
Ce       3.81961613       0.78615530       1.04937000
Ce      -0.05880432       7.50592332       1.05253000
Ce       1.89126568       4.14999332       1.06969000
Ce      -0.05656387       0.79150530       1.05392000
Ce      -3.93916432       7.50634332       1.05178000
Ce      -1.99831432       4.14167332       1.05594000
O        7.69054568       3.03643332       4.92904000
O        9.63914608      -0.31673470       4.92595000
O        5.80008563       6.42489332       4.93834000
O        3.82706613       2.85781530       5.02656000
O        5.76261613      -0.33647470       4.92486000
O        1.84994568       6.42972332       4.88819000
O       -0.06262432       3.03031332       4.91867000
O        1.88128613      -0.33785470       4.92918000
O       -1.99877432       6.38090332       4.92595000
O        7.70004613       0.79115530       3.34730000
O        3.83096568       7.50953332       3.36344000
O        5.70403568       4.15519332       3.38742000
O        3.81967613       0.76372530       3.32506000
O       -0.07895432       7.51413332       3.33558000
O        1.93391568       4.14322332       3.39111000
O       -0.05595387       0.78669530       3.35052000
O       -3.92679432       7.51063332       3.33770000
O       -2.00152432       4.14877332       3.34825000
O        5.76168613       1.91661530       1.85658000
O        1.88433568       8.62667332       1.85550000
O        3.81632568       5.28953332       1.83880000
O        1.87890613       1.91497530       1.85829000
O       -2.00192432       8.62024332       1.83244000
O       -0.03968432       5.25459332       1.87122000
O        9.64107608       1.90773530       1.85546000
O        5.75982563       8.62857332       1.85236000
O        7.68051563       5.25590332       1.86669000
O        7.70057568       3.02920332       0.27530000
O        9.63939613      -0.32810470       0.27101000
O        5.76412563       6.39067332       0.27128000
O        3.82029568       3.02898332       0.27984000
O        5.76434613      -0.32950470       0.27321000
O        1.87486568       6.39139332       0.27059000
O       -0.05819432       3.03008332       0.27497000
O        1.87798613      -0.32834470       0.27055000
O       -1.99706432       6.37171332       0.28096000
O        3.95206568       4.79461332       6.72629000
H        3.98539568       3.84322332       6.38541000
H        4.84447568       5.03618332       7.03476000
C        2.40644568       4.44223332      11.05343000
O        2.40644568       4.44223332       9.90000000
59
Lattice="11.6375999451 0.0 0.0 -5.8188004494 10.0784580174 0.0 0.0 0.0 13.0" Properties=species:S:1:pos:R:3 Iteration:=T 14=T FORCE:=T ...=T F0:=T -468.11147366=T ENERGY(s->0):=T pbc="T T T"
Ce       5.75549484       1.88682345       4.15683000
Ce       1.87379439       8.64032147       4.15207000
Ce       3.80951439       5.33287147       4.18761000
Ce       1.88708484       1.88735345       4.16507000
Ce      -1.99806561       8.61616147       4.14213000
Ce      -0.06021561       5.26510147       4.15776000
Ce       9.64059478       1.91006345       4.15764000
Ce       5.76935433       8.63823147       4.15556000
Ce       7.69742433       5.26651147       4.15385000
Ce       7.69950484       0.79201345       1.05201000
Ce       3.82110439       7.50933147       1.05139000
Ce       5.74795439       4.15140147       1.06946000
Ce       3.81945484       0.78602345       1.04937000
Ce      -0.05896561       7.50579147       1.05253000
Ce       1.89110439       4.14986147       1.06969000
Ce      -0.05672516       0.79137345       1.05392000
Ce      -3.93932561       7.50621147       1.05178000
Ce      -1.99847561       4.14154147       1.05594000
O        7.69047439       3.03661147       4.92900000
O        9.63903478      -0.31684655       4.92605000
O        5.80052433       6.42531147       4.93821000
O        3.82645484       2.85686345       5.02718000
O        5.76265484      -0.33640655       4.92506000
O        1.84980439       6.42960147       4.88857000
O       -0.06281561       3.03052147       4.91892000
O        1.88115484      -0.33780655       4.92938000
O       -1.99878561       6.38061147       4.92627000
O        7.69996484       0.79105345       3.34729000
O        3.83097439       7.50929147       3.36392000
O        5.70365439       4.15528147       3.38788000
O        3.81963484       0.76366345       3.32487000
O       -0.07875561       7.51394147       3.33543000
O        1.93397439       4.14322147       3.39140000
O       -0.05608516       0.78652345       3.35052000
O       -3.92701561       7.51055147       3.33754000
O       -2.00164561       4.14873147       3.34852000
O        5.76152484       1.91648345       1.85658000
O        1.88417439       8.62654147       1.85550000
O        3.81616439       5.28940147       1.83880000
O        1.87874484       1.91484345       1.85829000
O       -2.00208561       8.62011147       1.83244000
O       -0.03984561       5.25446147       1.87122000
O        9.64091478       1.90760345       1.85546000
O        5.75966433       8.62844147       1.85236000
O        7.68035433       5.25577147       1.86669000
O        7.70041439       3.02907147       0.27530000
O        9.63923484      -0.32823655       0.27101000
O        5.76396433       6.39054147       0.27128000
O        3.82013439       3.02885147       0.27984000
O        5.76418484      -0.32963655       0.27321000
O        1.87470439       6.39126147       0.27059000
O       -0.05835561       3.02995147       0.27497000
O        1.87782484      -0.32847655       0.27055000
O       -1.99722561       6.37158147       0.28096000
O        3.95469439       4.79686147       6.72194000
H        3.98575439       3.84389147       6.38571000
H        4.84674439       5.03695147       7.03252000
C        2.40628439       4.44210147      10.90343000
O        2.40628439       4.44210147       9.75000000
59
Lattice="11.6375999451 0.0 0.0 -5.8188004494 10.0784580174 0.0 0.0 0.0 13.0" Properties=species:S:1:pos:R:3 Iteration:=T 58=T FORCE:=T ...=T F0:=T -468.11316872=T ENERGY(s->0):=T pbc="T T T"
Ce       5.75449959       1.88650387       4.15635000
Ce       1.87338914       8.64053189       4.15242000
Ce       3.80681914       5.33272189       4.18436000
Ce       1.88672959       1.88688387       4.16525000
Ce      -1.99820086       8.61546189       4.14214000
Ce      -0.06101086       5.26481189       4.15765000
Ce       9.63967953       1.90992387       4.15808000
Ce       5.76981908       8.63835189       4.15613000
Ce       7.69732908       5.26708189       4.15335000
Ce       7.69858959       0.79151387       1.05201000
Ce       3.82018914       7.50883189       1.05139000
Ce       5.74703914       4.15090189       1.06946000
Ce       3.81853959       0.78552387       1.04937000
Ce      -0.05988086       7.50529189       1.05253000
Ce       1.89018914       4.14936189       1.06969000
Ce      -0.05764041       0.79087387       1.05392000
Ce      -3.94024086       7.50571189       1.05178000
Ce      -1.99939086       4.14104189       1.05594000
O        7.68916914       3.03663189       4.92887000
O        9.63820953      -0.31755613       4.92563000
O        5.80449908       6.42621189       4.94043000
O        3.82617959       2.85680387       5.02482000
O        5.76248959      -0.33688613       4.92467000
O        1.84941914       6.42821189       4.88904000
O       -0.06345086       3.03030189       4.91892000
O        1.88115959      -0.33801613       4.92945000
O       -1.99898086       6.38144189       4.92552000
O        7.69916959       0.79093387       3.34750000
O        3.83080914       7.50868189       3.36371000
O        5.70280914       4.15606189       3.38710000
O        3.81906959       0.76257387       3.32465000
O       -0.07889086       7.51374189       3.33550000
O        1.93250914       4.14303189       3.39035000
O       -0.05646041       0.78649387       3.35105000
O       -3.92702086       7.51097189       3.33687000
O       -2.00215086       4.14845189       3.34846000
O        5.76060959       1.91598387       1.85658000
O        1.88325914       8.62604189       1.85550000
O        3.81524914       5.28890189       1.83880000
O        1.87782959       1.91434387       1.85829000
O       -2.00300086       8.61961189       1.83244000
O       -0.04076086       5.25396189       1.87122000
O        9.63999953       1.90710387       1.85546000
O        5.75874908       8.62794189       1.85236000
O        7.67943908       5.25527189       1.86669000
O        7.69949914       3.02857189       0.27530000
O        9.63831959      -0.32873613       0.27101000
O        5.76304908       6.39004189       0.27128000
O        3.81921914       3.02835189       0.27984000
O        5.76326959      -0.33013613       0.27321000
O        1.87378914       6.39076189       0.27059000
O       -0.05927086       3.02945189       0.27497000
O        1.87690959      -0.32897613       0.27055000
O       -1.99814086       6.37108189       0.28096000
O        4.00486914       4.80766189       6.71348000
H        4.02403914       3.85365189       6.38227000
H        4.91456914       5.06213189       6.95642000
C        2.40536914       4.44160189      10.75343000
O        2.40536914       4.44160189       9.60000000
59
Lattice="11.6375999451 0.0 0.0 -5.8188004494 10.0784580174 0.0 0.0 0.0 13.0" Properties=species:S:1:pos:R:3 Iteration:=T 37=T FORCE:=T ...=T F0:=T -468.11327433=T ENERGY(s->0):=T pbc="T T T"
Ce       5.75392166       1.88683068       4.15708000
Ce       1.87288121       8.64017870       4.15241000
Ce       3.80613121       5.33216870       4.18388000
Ce       1.88676166       1.88734068       4.16617000
Ce      -1.99829879       8.61599870       4.14217000
Ce      -0.06166879       5.26426870       4.15808000
Ce       9.63918160       1.90926068       4.15796000
Ce       5.77043115       8.63791870       4.15583000
Ce       7.69769115       5.26721870       4.15332000
Ce       7.69831166       0.79170068       1.05201000
Ce       3.81991121       7.50901870       1.05139000
Ce       5.74676121       4.15108870       1.06946000
Ce       3.81826166       0.78571068       1.04937000
Ce      -0.06015879       7.50547870       1.05253000
Ce       1.88991121       4.14954870       1.06969000
Ce      -0.05791834       0.79106068       1.05392000
Ce      -3.94051879       7.50589870       1.05178000
Ce      -1.99966879       4.14122870       1.05594000
O        7.68855121       3.03597870       4.92903000
O        9.63737160      -0.31797932       4.92540000
O        5.80824115       6.42754870       4.93809000
O        3.82490166       2.85897068       5.02800000
O        5.76197166      -0.33713932       4.92513000
O        1.84886121       6.42643870       4.88918000
O       -0.06415879       3.02993870       4.91926000
O        1.88143166      -0.33843932       4.92964000
O       -1.99907879       6.38027870       4.92603000
O        7.69868166       0.79054068       3.34750000
O        3.83035121       7.50744870       3.36398000
O        5.70122121       4.15578870       3.38750000
O        3.81887166       0.76340068       3.32486000
O       -0.07929879       7.51364870       3.33567000
O        1.93275121       4.14269870       3.38996000
O       -0.05685834       0.78620068       3.35127000
O       -3.92549879       7.51162870       3.33589000
O       -2.00248879       4.14780870       3.34844000
O        5.76033166       1.91617068       1.85658000
O        1.88298121       8.62622870       1.85550000
O        3.81497121       5.28908870       1.83880000
O        1.87755166       1.91453068       1.85829000
O       -2.00327879       8.61979870       1.83244000
O       -0.04103879       5.25414870       1.87122000
O        9.63972160       1.90729068       1.85546000
O        5.75847115       8.62812870       1.85236000
O        7.67916115       5.25545870       1.86669000
O        7.69922121       3.02875870       0.27530000
O        9.63804166      -0.32854932       0.27101000
O        5.76277115       6.39022870       0.27128000
O        3.81894121       3.02853870       0.27984000
O        5.76299166      -0.32994932       0.27321000
O        1.87351121       6.39094870       0.27059000
O       -0.05954879       3.02963870       0.27497000
O        1.87663166      -0.32878932       0.27055000
O       -1.99841879       6.37126870       0.28096000
O        4.02333121       4.81925870       6.70985000
H        4.03577121       3.86312870       6.38668000
H        4.93522121       5.07180870       6.94607000
C        2.40509121       4.44178870      10.60343000
O        2.40509121       4.44178870       9.45000000
59
Lattice="11.6375999451 0.0 0.0 -5.8188004494 10.0784580174 0.0 0.0 0.0 13.0" Properties=species:S:1:pos:R:3 Iteration:=T 43=T FORCE:=T ...=T F0:=T -468.11261651=T ENERGY(s->0):=T pbc="T T T"
Ce       5.75385203       1.88739280       4.15630000
Ce       1.87291159       8.64026082       4.15260000
Ce       3.80288159       5.33008082       4.18261000
Ce       1.88656203       1.88730280       4.16627000
Ce      -1.99834841       8.61603082       4.14229000
Ce      -0.06283841       5.26421082       4.15811000
Ce       9.63879198       1.90940280       4.15778000
Ce       5.77016153       8.63765082       4.15643000
Ce       7.69714153       5.26775082       4.15288000
Ce       7.69727203       0.79094280       1.05201000
Ce       3.81887159       7.50826082       1.05139000
Ce       5.74572159       4.15033082       1.06946000
Ce       3.81722203       0.78495280       1.04937000
Ce      -0.06119841       7.50472082       1.05253000
Ce       1.88887159       4.14879082       1.06969000
Ce      -0.05895797       0.79030280       1.05392000
Ce      -3.94155841       7.50514082       1.05178000
Ce      -2.00070841       4.14047082       1.05594000
O        7.68771159       3.03673082       4.92830000
O        9.63662198      -0.31735720       4.92484000
O        5.81121153       6.42794082       4.94142000
O        3.82576203       2.86067280       5.02525000
O        5.76250203      -0.33734720       4.92443000
O        1.84968159       6.42497082       4.89039000
O       -0.06471841       3.03040082       4.91929000
O        1.88022203      -0.33788720       4.92972000
O       -1.99896841       6.38023082       4.92551000
O        7.69819203       0.79028280       3.34685000
O        3.83035159       7.50678082       3.36425000
O        5.70101159       4.15698082       3.38680000
O        3.81830203       0.76356280       3.32505000
O       -0.07878841       7.51311082       3.33600000
O        1.93136159       4.14241082       3.38911000
O       -0.05746797       0.78588280       3.35110000
O       -3.92664841       7.51157082       3.33596000
O       -2.00299841       4.14776082       3.34805000
O        5.75929203       1.91541280       1.85658000
O        1.88194159       8.62547082       1.85550000
O        3.81393159       5.28833082       1.83880000
O        1.87651203       1.91377280       1.85829000
O       -2.00431841       8.61904082       1.83244000
O       -0.04207841       5.25339082       1.87122000
O        9.63868198       1.90653280       1.85546000
O        5.75743153       8.62737082       1.85236000
O        7.67812153       5.25470082       1.86669000
O        7.69818159       3.02800082       0.27530000
O        9.63700203      -0.32930720       0.27101000
O        5.76173153       6.38947082       0.27128000
O        3.81790159       3.02778082       0.27984000
O        5.76195203      -0.33070720       0.27321000
O        1.87247159       6.39019082       0.27059000