59
Lattice="11.6375999451 0.0 0.0 -5.8188004494 10.0784580174 0.0 0.0 0.0 13.0" Properties=species:S:1:pos:R:3 Iteration:=T 31=T FORCE:=T ...=T F0:=T -468.10761095=T ENERGY(s->0):=T pbc="T T T"
Ce       5.73099827       1.87007615       4.15700000
Ce       1.84950782       8.62490417       4.15125000
Ce       3.78774782       5.31858417       4.19097000
Ce       1.86247827       1.87083615       4.16416000
Ce      -2.02279218       8.59972417       4.14132000
Ce      -0.08378218       5.24958417       4.15692000
Ce       9.61611822       1.89500615       4.15670000
Ce       5.74383777       8.62324417       4.15440000
Ce       7.67257777       5.25019417       4.15376000
Ce       7.67527827       0.77633615       1.05201000
Ce       3.79687782       7.49365417       1.05139000
Ce       5.72372782       4.13572417       1.06946000
Ce       3.79522827       0.77034615       1.04937000
Ce      -0.08319218       7.49011417       1.05253000
Ce       1.86687782       4.13418417       1.06969000
Ce      -0.08095173       0.77569615       1.05392000
Ce      -3.96355218       7.49053417       1.05178000
Ce      -2.02270218       4.12586417       1.05594000
O        7.66687782       3.02098417       4.92754000
O        9.61498822      -0.33203385       4.92548000
O        5.77100777       6.40957417       4.93415000
O        3.80247827       2.83659615       5.03012000
O        5.73757827      -0.35216385       4.92467000
O        1.82546782       6.41614417       4.88677000
O       -0.08682218       3.01524417       4.91750000
O        1.85681827      -0.35384385       4.92850000
O       -2.02372218       6.36448417       4.92576000
O        7.67532827       0.77563615       3.34685000
O        3.80584782       7.49478417       3.36239000
O        5.67823782       4.13808417       3.38852000
O        3.79523827       0.74749615       3.32393000
O       -0.10379218       7.49803417       3.33488000
O        1.91165782       4.12716417       3.39248000
O       -0.08031173       0.77128615       3.34973000
O       -3.95149218       7.49404417       3.33755000
O       -2.02607218       4.13353417       3.34735000
O        5.73729827       1.90080615       1.85658000
O        1.85994782       8.61086417       1.85550000
O        3.79193782       5.27372417       1.83880000
O        1.85451827       1.89916615       1.85829000
O       -2.02631218       8.60443417       1.83244000
O       -0.06407218       5.23878417       1.87122000
O        9.61668822       1.89192615       1.85546000
O        5.73543777       8.61276417       1.85236000
O        7.65612777       5.24009417       1.86669000
O        7.67618782       3.01339417       0.27530000
O        9.61500827      -0.34391385       0.27101000
O        5.73973777       6.37486417       0.27128000
O        3.79590782       3.01317417       0.27984000
O        5.73995827      -0.34531385       0.27321000
O        1.85047782       6.37558417       0.27059000
O       -0.08258218       3.01427417       0.27497000
O        1.85359827      -0.34415385       0.27055000
O       -2.02145218       6.35590417       0.28096000
O        3.87004782       4.76150417       6.73160000
H        3.92257782       3.81247417       6.38339000
H        4.73056782       4.99019417       7.12623000
C        3.78668782       5.32216417      11.65343000
O        3.78668782       5.32216417      10.50000000
59
Lattice="11.6375999451 0.0 0.0 -5.8188004494 10.0784580174 0.0 0.0 0.0 13.0" Properties=species:S:1:pos:R:3 Iteration:=T 2=T FORCE:=T ...=T F0:=T -468.11051961=T ENERGY(s->0):=T pbc="T T T"
Ce       5.73096894       1.87011096       4.15701000
Ce       1.84948849       8.62485898       4.15128000
Ce       3.78774849       5.31861898       4.19092000
Ce       1.86252894       1.87086096       4.16417000
Ce      -2.02280151       8.59974898       4.14136000
Ce      -0.08377151       5.24957898       4.15694000
Ce       9.61611888       1.89501096       4.15673000
Ce       5.74385843       8.62318898       4.15443000
Ce       7.67255843       5.25018898       4.15378000
Ce       7.67527894       0.77633096       1.05201000
Ce       3.79687849       7.49364898       1.05139000
Ce       5.72372849       4.13571898       1.06946000
Ce       3.79522894       0.77034096       1.04937000
Ce      -0.08319151       7.49010898       1.05253000
Ce       1.86687849       4.13417898       1.06969000
Ce      -0.08095106       0.77569096       1.05392000
Ce      -3.96355151       7.49052898       1.05178000
Ce      -2.02270151       4.12585898       1.05594000
O        7.66690849       3.02096898       4.92758000
O        9.61498888      -0.33201904       4.92550000
O        5.77101843       6.40956898       4.93417000
O        3.80248894       2.83656096       5.03007000
O        5.73759894      -0.35217904       4.92468000
O        1.82545849       6.41613898       4.88679000
O       -0.08686151       3.01522898       4.91754000
O        1.85679894      -0.35385904       4.92851000
O       -2.02372151       6.36447898       4.92577000
O        7.67535894       0.77560096       3.34686000
O        3.80584849       7.49475898       3.36243000
O        5.67827849       4.13809898       3.38850000
O        3.79523894       0.74750096       3.32396000
O       -0.10380151       7.49804898       3.33490000
O        1.91162849       4.12718898       3.39246000
O       -0.08034106       0.77126096       3.34975000
O       -3.95148151       7.49406898       3.33756000
O       -2.02607151       4.13351898       3.34739000
O        5.73729894       1.90080096       1.85658000
O        1.85994849       8.61085898       1.85550000
O        3.79193849       5.27371898       1.83880000
O        1.85451894       1.89916096       1.85829000
O       -2.02631151       8.60442898       1.83244000
O       -0.06407151       5.23877898       1.87122000
O        9.61668888       1.89192096       1.85546000
O        5.73543843       8.61275898       1.85236000
O        7.65612843       5.24008898       1.86669000
O        7.67618849       3.01338898       0.27530000
O        9.61500894      -0.34391904       0.27101000
O        5.73973843       6.37485898       0.27128000
O        3.79590849       3.01316898       0.27984000
O        5.73995894      -0.34531904       0.27321000
O        1.85047849       6.37557898       0.27059000
O       -0.08258151       3.01426898       0.27497000
O        1.85359894      -0.34415904       0.27055000
O       -2.02145151       6.35589898       0.28096000
O        3.86996849       4.76149898       6.73153000
H        3.92260849       3.81249898       6.38333000
H        4.73060849       4.99021898       7.12627000
C        3.78668849       5.32215898      11.50343000
O        3.78668849       5.32215898      10.35000000
59
Lattice="11.6375999451 0.0 0.0 -5.8188004494 10.0784580174 0.0 0.0 0.0 13.0" Properties=species:S:1:pos:R:3 Iteration:=T 12=T FORCE:=T ...=T F0:=T -468.11312939=T ENERGY(s->0):=T pbc="T T T"
Ce       5.73121747       1.87031896       4.15700000
Ce       1.84897702       8.62454697       4.15192000
Ce       3.78763702       5.31969697       4.18991000
Ce       1.86256747       1.87099896       4.16424000
Ce      -2.02283298       8.60007697       4.14230000
Ce      -0.08413298       5.24941697       4.15734000
Ce       9.61624742       1.89448896       4.15765000
Ce       5.74432697       8.62276697       4.15515000
Ce       7.67269697       5.25003697       4.15424000
Ce       7.67521747       0.77621896       1.05201000
Ce       3.79681702       7.49353697       1.05139000
Ce       5.72366702       4.13560697       1.06946000
Ce       3.79516747       0.77022896       1.04937000
Ce      -0.08325298       7.48999697       1.05253000
Ce       1.86681702       4.13406697       1.06969000
Ce      -0.08101253       0.77557896       1.05392000
Ce      -3.96361298       7.49041697       1.05178000
Ce      -2.02276298       4.12574697       1.05594000
O        7.66733702       3.02059697       4.92883000
O        9.61495742      -0.33205104       4.92634000
O        5.77158697       6.40957697       4.93483000
O        3.80275747       2.83539896       5.02875000
O        5.73783747      -0.35240104       4.92524000
O        1.82491702       6.41618697       4.88748000
O       -0.08726298       3.01488697       4.91883000
O        1.85647747      -0.35390104       4.92910000
O       -2.02365298       6.36464697       4.92637000
O        7.67563747       0.77505896       3.34723000
O        3.80577702       7.49414697       3.36340000
O        5.67919702       4.13869697       3.38836000
O        3.79517747       0.74736896       3.32445000
O       -0.10409298       7.49839697       3.33535000
O        1.91084702       4.12775697       3.39229000
O       -0.08064253       0.77079896       3.35021000
O       -3.95132298       7.49445697       3.33804000
O       -2.02599298       4.13323697       3.34818000
O        5.73723747       1.90068896       1.85658000
O        1.85988702       8.61074697       1.85550000
O        3.79187702       5.27360697       1.83880000
O        1.85445747       1.89904896       1.85829000
O       -2.02637298       8.60431697       1.83244000
O       -0.06413298       5.23866697       1.87122000
O        9.61662742       1.89180896       1.85546000
O        5.73537697       8.61264697       1.85236000
O        7.65606697       5.23997697       1.86669000
O        7.67612702       3.01327697       0.27530000
O        9.61494747      -0.34403104       0.27101000
O        5.73967697       6.37474697       0.27128000
O        3.79584702       3.01305697       0.27984000
O        5.73989747      -0.34543104       0.27321000
O        1.85041702       6.37546697       0.27059000
O       -0.08264298       3.01415697       0.27497000
O        1.85353747      -0.34427104       0.27055000
O       -2.02151298       6.35578697       0.28096000
O        3.86979702       4.76198697       6.72829000
H        3.92356702       3.81267697       6.38110000
H        4.72849702       4.99051697       7.12745000
C        3.78662702       5.32204697      11.35343000
O        3.78662702       5.32204697      10.20000000
59
Lattice="11.6375999451 0.0 0.0 -5.8188004494 10.0784580174 0.0 0.0 0.0 13.0" Properties=species:S:1:pos:R:3 Iteration:=T 31=T FORCE:=T ...=T F0:=T -468.11494099=T ENERGY(s->0):=T pbc="T T T"
Ce       5.73162125       1.86943147       4.15689000
Ce       1.84877080       8.62471949       4.15188000
Ce       3.78779080       5.32128949       4.18845000
Ce       1.86230125       1.87025147       4.16420000
Ce      -2.02282920       8.59987949       4.14154000
Ce      -0.08424920       5.24945949       4.15729000
Ce       9.61615119       1.89445147       4.15766000
Ce       5.74451074       8.62312949       4.15502000
Ce       7.67293074       5.25017949       4.15411000
Ce       7.67507125       0.77605147       1.05201000
Ce       3.79667080       7.49336949       1.05139000
Ce       5.72352080       4.13543949       1.06946000
Ce       3.79502125       0.77006147       1.04937000
Ce      -0.08339920       7.48982949       1.05253000
Ce       1.86667080       4.13389949       1.06969000
Ce      -0.08115875       0.77541147       1.05392000
Ce      -3.96375920       7.49024949       1.05178000
Ce      -2.02290920       4.12557949       1.05594000
O        7.66731080       3.02029949       4.92887000
O        9.61494119      -0.33204853       4.92691000
O        5.77257074       6.41166949       4.93345000
O        3.80361125       2.83141147       5.02936000
O        5.73815125      -0.35235853       4.92570000
O        1.82416080       6.41736949       4.88691000
O       -0.08708920       3.01464949       4.91900000
O        1.85640125      -0.35367853       4.92959000
O       -2.02366920       6.36418949       4.92694000
O        7.67555125       0.77486147       3.34703000
O        3.80558080       7.49461949       3.36268000
O        5.67900080       4.13890949       3.38858000
O        3.79512125       0.74623147       3.32354000
O       -0.10464920       7.49837949       3.33524000
O        1.91114080       4.12772949       3.39257000
O       -0.08055875       0.77071147       3.35007000
O       -3.95050920       7.49461949       3.33778000
O       -2.02604920       4.13335949       3.34801000
O        5.73709125       1.90052147       1.85658000
O        1.85974080       8.61057949       1.85550000
O        3.79173080       5.27343949       1.83880000
O        1.85431125       1.89888147       1.85829000
O       -2.02651920       8.60414949       1.83244000
O       -0.06427920       5.23849949       1.87122000
O        9.61648119       1.89164147       1.85546000
O        5.73523074       8.61247949       1.85236000
O        7.65592074       5.23980949       1.86669000
O        7.67598080       3.01310949       0.27530000
O        9.61480125      -0.34419853       0.27101000
O        5.73953074       6.37457949       0.27128000
O        3.79570080       3.01288949       0.27984000
O        5.73975125      -0.34559853       0.27321000
O        1.85027080       6.37529949       0.27059000
O       -0.08278920       3.01398949       0.27497000
O        1.85339125      -0.34443853       0.27055000
O       -2.02165920       6.35561949       0.28096000
O        3.86640080       4.76011949       6.71644000
H        3.92653080       3.81065949       6.36813000
H        4.71584080       4.99218949       7.13229000
C        3.78648080       5.32187949      11.20343000
O        3.78648080       5.32187949      10.05000000
59
Lattice="11.6375999451 0.0 0.0 -5.8188004494 10.0784580174 0.0 0.0 0.0 13.0" Properties=species:S:1:pos:R:3 Iteration:=T 14=T FORCE:=T ...=T F0:=T -468.11481397=T ENERGY(s->0):=T pbc="T T T"
Ce       5.73141730       1.86958542       4.15693000
Ce       1.84873685       8.62488343       4.15183000
Ce       3.78792685       5.32137343       4.18839000
Ce       1.86260730       1.87034542       4.16423000
Ce      -2.02282315       8.59968343       4.14179000
Ce      -0.08404315       5.24934343       4.15732000
Ce       9.61619724       1.89445542       4.15768000
Ce       5.74446679       8.62326343       4.15503000
Ce       7.67262679       5.25011343       4.15418000
Ce       7.67503730       0.77599542       1.05201000
Ce       3.79663685       7.49331343       1.05139000
Ce       5.72348685       4.13538343       1.06946000
Ce       3.79498730       0.77000542       1.04937000
Ce      -0.08343315       7.48977343       1.05253000
Ce       1.86663685       4.13384343       1.06969000
Ce      -0.08119270       0.77535542       1.05392000
Ce      -3.96379315       7.49019343       1.05178000
Ce      -2.02294315       4.12552343       1.05594000
O        7.66759685       3.02021343       4.92876000
O        9.61495724      -0.33203458       4.92696000
O        5.77200679       6.41159343       4.93366000
O        3.80394730       2.83071542       5.02896000
O        5.73792730      -0.35251458       4.92585000
O        1.82431685       6.41754343       4.88692000
O       -0.08714315       3.01457343       4.91893000
O        1.85649730      -0.35359458       4.92979000
O       -2.02369315       6.36416343       4.92701000
O        7.67564730       0.77512542       3.34730000
O        3.80557685       7.49478343       3.36293000
O        5.67855685       4.13883343       3.38899000
O        3.79505730       0.74591542       3.32388000
O       -0.10465315       7.49813343       3.33501000
O        1.91177685       4.12745343       3.39325000
O       -0.08056270       0.77101542       3.35028000
O       -3.95073315       7.49433343       3.33775000
O       -2.02606315       4.13315343       3.34827000
O        5.73705730       1.90046542       1.85658000
O        1.85970685       8.61052343       1.85550000
O        3.79169685       5.27338343       1.83880000
O        1.85427730       1.89882542       1.85829000
O       -2.02655315       8.60409343       1.83244000
O       -0.06431315       5.23844343       1.87122000
O        9.61644724       1.89158542       1.85546000
O        5.73519679       8.61242343       1.85236000
O        7.65588679       5.23975343       1.86669000
O        7.67594685       3.01305343       0.27530000
O        9.61476730      -0.34425458       0.27101000
O        5.73949679       6.37452343       0.27128000
O        3.79566685       3.01283343       0.27984000
O        5.73971730      -0.34565458       0.27321000
O        1.85023685       6.37524343       0.27059000
O       -0.08282315       3.01393343       0.27497000
O        1.85335730      -0.34449458       0.27055000
O       -2.02169315       6.35556343       0.28096000
O        3.86569685       4.75962343       6.71119000
H        3.92545685       3.80841343       6.36744000
H        4.71236685       4.99117343       7.13295000
C        3.78644685       5.32182343      11.05343000
O        3.78644685       5.32182343       9.90000000
59
Lattice="11.6375999451 0.0 0.0 -5.8188004494 10.0784580174 0.0 0.0 0.0 13.0" Properties=species:S:1:pos:R:3 Iteration:=T 29=T FORCE:=T ...=T F0:=T -468.11168887=T ENERGY(s->0):=T pbc="T T T"
Ce       5.73157697       1.86822329       4.15664000
Ce       1.84845652       8.62520130       4.15181000
Ce       3.78815652       5.32393130       4.18594000
Ce       1.86259697       1.86918329       4.16400000
Ce      -2.02286348       8.59951130       4.14122000
Ce      -0.08406348       5.24940130       4.15714000
Ce       9.61620692       1.89479329       4.15772000
Ce       5.74481647       8.62367130       4.15499000
Ce       7.67277647       5.25017130       4.15409000
Ce       7.67501697       0.77608329       1.05201000
Ce       3.79661652       7.49340130       1.05139000
Ce       5.72346652       4.13547130       1.06946000
Ce       3.79496697       0.77009329       1.04937000
Ce      -0.08345348       7.48986130       1.05253000
Ce       1.86661652       4.13393130       1.06969000
Ce      -0.08121303       0.77544329       1.05392000
Ce      -3.96381348       7.49028130       1.05178000
Ce      -2.02296348       4.12561130       1.05594000
O        7.66785652       3.02025130       4.92873000
O        9.61492692      -0.33185671       4.92729000
O        5.77277647       6.41364130       4.93211000
O        3.80394697       2.82301329       5.02988000
O        5.73833697      -0.35264671       4.92611000
O        1.82371652       6.41905130       4.88617000
O       -0.08726348       3.01484130       4.91892000
O        1.85627697      -0.35373671       4.92995000
O       -2.02369348       6.36394130       4.92726000
O        7.67574697       0.77502329       3.34728000
O        3.80542652       7.49539130       3.36227000
O        5.67780652       4.13890130       3.38934000
O        3.79512697       0.74430329       3.32268000
O       -0.10491348       7.49819130       3.33494000
O        1.91246652       4.12775130       3.39341000
O       -0.08062303       0.77106329       3.35029000
O       -3.95019348       7.49450130       3.33751000
O       -2.02602348       4.13341130       3.34830000
O        5.73703697       1.90055329       1.85658000
O        1.85968652       8.61061130       1.85550000
O        3.79167652       5.27347130       1.83880000
O        1.85425697       1.89891329       1.85829000
O       -2.02657348       8.60418130       1.83244000
O       -0.06433348       5.23853130       1.87122000
O        9.61642692       1.89167329       1.85546000
O        5.73517647       8.61251130       1.85236000
O        7.65586647       5.23984130       1.86669000
O        7.67592652       3.01314130       0.27530000
O        9.61474697      -0.34416671       0.27101000
O        5.73947647       6.37461130       0.27128000
O        3.79564652       3.01292130       0.27984000
O        5.73969697      -0.34556671       0.27321000
O        1.85021652       6.37533130       0.27059000
O       -0.08284348       3.01402130       0.27497000
O        1.85333697      -0.34440671       0.27055000
O       -2.02171348       6.35565130       0.28096000
O        3.86109652       4.75534130       6.69722000
H        3.92509652       3.80347130       6.35235000
H        4.69893652       4.98830130       7.13487000
C        3.78642652       5.32191130      10.90343000
O        3.78642652       5.32191130       9.75000000
59
Lattice="11.6375999451 0.0 0.0 -5.8188004494 10.0784580174 0.0 0.0 0.0 13.0" Properties=species:S:1:pos:R:3 Iteration:=T 106=T FORCE:=T ...=T F0:=T -468.10546137=T ENERGY(s->0):=T pbc="T T T"
Ce       5.73347316       1.86517601       4.15661000
Ce       1.84852271       8.62667403       4.15192000
Ce       3.79132271       5.33299403       4.18513000
Ce       1.86284316       1.86621601       4.16318000
Ce      -2.02244729       8.59881403       4.14055000
Ce      -0.08240729       5.24976403       4.15712000
Ce       9.61743310       1.89645601       4.15814000
Ce       5.74506265       8.62544403       4.15497000
Ce       7.67271265       5.24927403       4.15442000
Ce       7.67614316       0.77699601       1.05201000
Ce       3.79774271       7.49431403       1.05139000
Ce       5.72459271       4.13638403       1.06946000
Ce       3.79609316       0.77100601       1.04937000
Ce      -0.08232729       7.49077403       1.05253000
Ce       1.86774271       4.13484403       1.06969000
Ce      -0.08008684       0.77635601       1.05392000
Ce      -3.96268729       7.49119403       1.05178000
Ce      -2.02183729       4.12652403       1.05594000
O        7.67053271       3.02082403       4.92777000
O        9.61649310      -0.33007399       4.92844000
O        5.76754265       6.41585403       4.92877000
O        3.80571316       2.79718601       5.03400000
O        5.73977316      -0.35343399       4.92663000
O        1.82380271       6.42614403       4.88335000
O       -0.08716729       3.01543403       4.91781000
O        1.85546316      -0.35448399       4.93030000
O       -2.02331729       6.36298403       4.92764000
O        7.67703316       0.77539601       3.34662000
O        3.80572271       7.49807403       3.36072000
O        5.67703271       4.13924403       3.39118000
O        3.79604316       0.74008601       3.31891000
O       -0.10637729       7.49850403       3.33418000
O        1.91705271       4.12925403       3.39610000
O       -0.07981684       0.77153601       3.34909000
O       -3.94879729       7.49422403       3.33763000
O       -2.02494729       4.13510403       3.34713000
O        5.73816316       1.90146601       1.85658000
O        1.86081271       8.61152403       1.85550000
O        3.79280271       5.27438403       1.83880000
O        1.85538316       1.89982601       1.85829000
O       -2.02544729       8.60509403       1.83244000
O       -0.06320729       5.23944403       1.87122000
O        9.61755310       1.89258601       1.85546000
O        5.73630265       8.61342403       1.85236000
O        7.65699265       5.24075403       1.86669000
O        7.67705271       3.01405403       0.27530000
O        9.61587316      -0.34325399       0.27101000
O        5.74060265       6.37552403       0.27128000
O        3.79677271       3.01383403       0.27984000
O        5.74082316      -0.34465399       0.27321000
O        1.85134271       6.37624403       0.27059000
O       -0.08171729       3.01493403       0.27497000
O        1.85446316      -0.34349399       0.27055000
O       -2.02058729       6.35656403       0.28096000
O        3.78505271       4.71555403       6.67088000
H        3.87253271       3.76502403       6.31070000
H        4.56190271       4.92820403       7.21589000
C        3.78755271       5.32282403      10.75343000
O        3.78755271       5.32282403       9.60000000
59
Lattice="11.6375999451 0.0 0.0 -5.8188004494 10.0784580174 0.0 0.0 0.0 13.0" Properties=species:S:1:pos:R:3 Iteration:=T 34=T FORCE:=T ...=T F0:=T -468.08948273=T ENERGY(s->0):=T pbc="T T T"
Ce       5.73327418       1.86299188       4.15621000
Ce       1.84770373       8.62782990       4.15177000
Ce       3.79068373       5.33780990       4.17897000
Ce       1.86322418       1.86428188       4.16304000
Ce      -2.02229627       8.59776990       4.13983000
Ce      -0.08240627       5.24995990       4.15695000
Ce       9.61761412       1.89673188       4.15841000
Ce       5.74617367       8.62621990       4.15511000
Ce       7.67298367       5.24923990       4.15444000
Ce       7.67626418       0.77719188       1.05201000
Ce       3.79786373       7.49450990       1.05139000
Ce       5.72471373       4.13657990       1.06946000
Ce       3.79621418       0.77120188       1.04937000
Ce      -0.08220627       7.49096990       1.05253000
Ce       1.86786373       4.13503990       1.06969000
Ce      -0.07996582       0.77655188       1.05392000
Ce      -3.96256627       7.49138990       1.05178000
Ce      -2.02171627       4.12671990       1.05594000
O        7.67131373       3.02104990       4.92752000
O        9.61694412      -0.32972812       4.92888000
O        5.76911367       6.41854990       4.92713000
O        3.80596418       2.78103188       5.03611000
O        5.74055418      -0.35358812       4.92708000
O        1.82190373       6.42927990       4.88114000
O       -0.08738627       3.01569990       4.91784000
O        1.85525418      -0.35487812       4.93047000
O       -2.02301627       6.36239990       4.92834000
O        7.67750418       0.77512188       3.34652000
O        3.80603373       7.49972990       3.35949000
O        5.67516373       4.13897990       3.39206000
O        3.79608418       0.73715188       3.31663000
O       -0.10690627       7.49909990       3.33332000
O        1.91839373       4.12920990       3.39671000
O       -0.07998582       0.77114188       3.34931000
O       -3.94818627       7.49426990       3.33736000
O       -2.02497627       4.13535990       3.34730000
O        5.73828418       1.90166188       1.85658000
O        1.86093373       8.61171990       1.85550000
O        3.79292373       5.27457990       1.83880000
O        1.85550418       1.90002188       1.85829000
O       -2.02532627       8.60528990       1.83244000
O       -0.06308627       5.23963990       1.87122000
O        9.61767412       1.89278188       1.85546000
O        5.73642367       8.61361990       1.85236000
O        7.65711367       5.24094990       1.86669000
O        7.67717373       3.01424990       0.27530000
O        9.61599418      -0.34305812       0.27101000
O        5.74072367       6.37571990       0.27128000
O        3.79689373       3.01402990       0.27984000
O        5.74094418      -0.34445812       0.27321000
O        1.85146373       6.37643990       0.27059000
O       -0.08159627       3.01512990       0.27497000
O        1.85458418      -0.34329812       0.27055000
O       -2.02046627       6.35675990       0.28096000
O        3.78008373       4.71029990       6.63800000
H        3.87070373       3.75582990       6.27971000
H        4.54939373       4.92869990       7.19059000
C        3.78767373       5.32301990      10.60343000
O        3.78767373       5.32301990       9.45000000
59
Lattice="11.6375999451 0.0 0.0 -5.8188004494 10.0784580174 0.0 0.0 0.0 13.0" Properties=species:S:1:pos:R:3 Iteration:=T 48=T FORCE:=T ...=T F0:=T -468.06145818=T ENERGY(s->0):=T pbc="T T T"
Ce       5.73427244       1.85967808       4.15596000
Ce       1.84685199       8.62970610       4.15184000
Ce       3.79024199       5.34692610       4.17268000
Ce       1.86331244       1.86074808       4.16293000
Ce      -2.02237801       8.59663610       4.13892000
Ce      -0.08259801       5.24978610       4.15692000
Ce       9.61817239       1.89766808       4.15857000
Ce       5.74676194       8.62787610       4.15561000
Ce       7.67255194       5.24889610       4.15450000
Ce       7.67648244       0.77767808       1.05201000
Ce       3.79808199       7.49499610       1.05139000
Ce       5.72493199       4.13706610       1.06946000
Ce       3.79643244       0.77168808       1.04937000
Ce      -0.08198801       7.49145610       1.05253000
Ce       1.86808199       4.13552610       1.06969000
Ce      -0.07974756       0.77703808       1.05392000
Ce      -3.96234801       7.49187610       1.05178000
Ce      -2.02149801       4.12720610       1.05594000
O        7.67193199       3.02236610       4.92688000
O        9.61731239      -0.32744192       4.92942000
O        5.76804194       6.42180610       4.92685000
O        3.80673244       2.75077808       5.04426000
O        5.74157244      -0.35511192       4.92655000
O        1.82089199       6.43368610       4.87886000
O       -0.08790801       3.01670610       4.91701000
O        1.85446244      -0.35609192       4.93051000
O       -2.02298801       6.36097610       4.92848000
O        7.67793244       0.77540808       3.34625000
O        3.80619199       7.50281610       3.35823000
O        5.67212199       4.13908610       3.39390000
O        3.79613244       0.73301808       3.31285000
O       -0.10825801       7.49905610       3.33246000
O        1.92249199       4.12885610       3.39908000
O       -0.07971756       0.77122808       3.34888000
O       -3.94786801       7.49400610       3.33729000
O       -2.02484801       4.13607610       3.34652000
O        5.73850244       1.90214808       1.85658000
O        1.86115199       8.61220610       1.85550000
O        3.79314199       5.27506610       1.83880000
O        1.85572244       1.90050808       1.85829000
O       -2.02510801       8.60577610       1.83244000
O       -0.06286801       5.24012610       1.87122000
O        9.61789239       1.89326808       1.85546000
O        5.73664194       8.61410610       1.85236000
O        7.65733194       5.24143610       1.86669000
O        7.67739199       3.01473610       0.27530000
O        9.61621244      -0.34257192       0.27101000
O        5.74094194       6.37620610       0.27128000
O        3.79711199       3.01451610       0.27984000
O        5.74116244      -0.34397192       0.27321000
O        1.85168199       6.37692610       0.27059000